   * xtb version 6.5.1 (b24c23e) compiled by 'conda@728c89f4b128' on 2022-07-12
          program call               : xtb Cu_p-CP_C8_3.xyz --gfn 1 --opt -T 48

   ID    Z sym.   atoms
    1   29 Cu     1, 63, 141
    2    6 C      2-6, 8-11, 13-24, 27-32, 35-39, 42, 43, 64-68, 70-73,
                  75-86, 89-94, 97-101, 104, 105, 125-140, 142-146, 148-151,
                  153-164, 167-172, 175-179, 182, 183
    3    7 N      7, 12, 33, 34, 69, 74, 95, 96, 147, 152, 173, 174
    4    8 O      25, 26, 40, 41, 87, 88, 102, 103, 165, 166, 180, 181
    5    1 H      44-62, 106-124, 184-201

          :  Hamiltonian                  GFN1-xTB          :
 * total energy  :  -386.4784188 Eh     change        0.2095385E-07 Eh
 * total energy  :  -386.9576042 Eh     change       -0.4791854E+00 Eh
 * total energy  :  -387.1315961 Eh     change       -0.1739919E+00 Eh
 * total energy  :  -387.2277725 Eh     change       -0.9617644E-01 Eh
 * total energy  :  -387.3099864 Eh     change       -0.8221393E-01 Eh
 * total energy  :  -387.3834086 Eh     change       -0.7342212E-01 Eh
 * total energy  :  -387.4288391 Eh     change       -0.4543054E-01 Eh
 * total energy  :  -387.4574351 Eh     change       -0.2859602E-01 Eh
 * total energy  :  -387.4785869 Eh     change       -0.2115178E-01 Eh
 * total energy  :  -387.4919689 Eh     change       -0.1338195E-01 Eh
 * total energy  :  -387.5585512 Eh     change       -0.2985322E-04 Eh
 * total energy  :  -387.5585726 Eh     change       -0.2140661E-04 Eh
 * total energy  :  -387.5585916 Eh     change       -0.1895772E-04 Eh
 * total energy  :  -387.5586038 Eh     change       -0.1221678E-04 Eh
 * total energy  :  -387.5586161 Eh     change       -0.1231187E-04 Eh
 * total energy  :  -387.5586253 Eh     change       -0.9161154E-05 Eh
 * total energy  :  -387.5586357 Eh     change       -0.1044892E-04 Eh
 * total energy  :  -387.5586414 Eh     change       -0.5681129E-05 Eh
 * total energy  :  -387.5586462 Eh     change       -0.4756179E-05 Eh
   *** GEOMETRY OPTIMIZATION CONVERGED AFTER 66 ITERATIONS ***

 final structure:
================
201
 xtb: 6.5.1 (b24c23e)
Cu          30.82965018043011       -0.04553412658697        0.00364033455767
C           27.42436957119192       -0.13730050365808        0.02317220678053
C           28.05645290621115       -0.17610859182305        1.25663089903279
C           27.37789762979633       -0.21616824929710        2.52050742398264
C           28.33379182876546       -0.22257059577903        3.48191425910741
C           29.60649672330980       -0.19711175597852        2.81280179734262
N           29.40667349973756       -0.16165630453166        1.46300736888589
C           30.84948107578015       -0.17799676631333        3.44987015061725
C           32.08410304435671       -0.11588223216149        2.80071942670878
C           33.36021266114870       -0.15079331360130        3.45767639825519
C           34.30839631975027       -0.09419906644142        2.48864490430741
N           32.27532893072619       -0.05011525247691        1.44606407548241
C           33.61988586027540       -0.03135847964177        1.23442179714925
C           34.25853582871776        0.02614999145651       -0.01646528213919
C           33.60314041182654        0.06548710671933       -1.25939092231443
C           34.27496755959492        0.09742229468001       -2.52376742711103
C           33.31390909577563        0.12219860719456       -3.48148374697663
C           32.04671871457128        0.11253720701445       -2.80674215232296
C           30.80292997735149        0.11367887291589       -3.44140657608131
C           30.79070679226249        0.18925786051658       -4.92280483427414
C           30.25176007875815       -0.85404392057025       -5.68023605702871
C           30.23938687678950       -0.78027588886841       -7.06086336301646
C           30.76142385222152        0.34003601600172       -7.71031646958748
C           30.72118262629651        0.37483358121427       -9.19170692137683
O           31.24720897536051        1.49169211358440       -9.71732510234106
O           30.26510230058047       -0.50182780775617       -9.88091114404199
C           31.29981202910631        1.38494224041207       -6.95871056310823
C           31.31538094725099        1.30662001058580       -5.57705369116897
C           29.56854997226522        0.04873554449679       -2.79057400941200
C           28.28670281249483        0.09036794373630       -3.44110456218891
C           27.34410191019276        0.01419076032500       -2.46962221499441
C           28.04003557280971       -0.06333240541211       -1.21702260072572
N           29.38739202414387       -0.03535904732404       -1.44021401024815
N           32.25600061185013        0.06910878506208       -1.45382209525884
C           30.85803020506885       -0.22883402211809        4.93242083602909
C           30.34272984259743       -1.34000338522586        5.60504730195490
C           30.35045789402317       -1.38452257107443        6.98700990558410
C           30.86939494978801       -0.31711425742520        7.72252205202964
C           30.85138112510455       -0.41018626322230        9.20190888889363
O           31.37499755892696        0.66278867352807        9.81430759469701
O           30.41380774617932       -1.34791796004290        9.81899455149720
C           31.38396008000026        0.79533225148499        7.05571715841584
C           31.37936623053634        0.83558871298773        5.67238312991858
H           26.33945275035509       -0.15416186397040        0.02939800080242
H           26.30626119815869       -0.22951907089132        2.64193755393335
H           28.19649965151143       -0.23153100934433        4.55115972801544
H           33.50787830278743       -0.22405619260622        4.52293173989423
H           35.38054545006555       -0.10020380305689        2.60280421431264
H           35.34553719935706        0.09452897169002       -2.65203055284999
H           33.44748518627083        0.13152880227088       -4.55108209137830
H           29.85689278677836       -1.72995263766367       -5.17813516302281
H           29.82681877528269       -1.58831173379576       -7.65499023372973
H           31.18259595545210        1.43594729873661      -10.68451255350449
H           31.70336166657589        2.25759566063238       -7.45848244444013
H           31.72245498587604        2.12410585039352       -4.99265798899142
H           28.13470253938458        0.17924824854186       -4.50469950031329
H           26.27083844100247        0.01696503698372       -2.57636536159054
H           29.95013887037771       -2.17496619041510        5.03541479583827
H           29.95602301610728       -2.24561807246139        7.51544420488937
H           31.32534969804793        0.52387765412543       10.77401350004214
H           31.78578860816413        1.62708835313885        7.62290449913852
H           31.76823143198056        1.70510916333362        5.15412731750771
Cu          68.04919991344453       -0.03564056494216       -0.03921347881362
C           71.45411710007586       -0.13014087748893       -0.07058614364625
C           70.82143810276287       -0.02470652039496       -1.29982924083349
C           71.49967397638795        0.08085390268620       -2.56010100938492
C           70.54358756474532        0.18638542022829       -3.51550440444606
C           69.27100185091960        0.13600399588010       -2.84752542066923
N           69.47115461636807        0.01506012767993       -1.50269799293104
C           68.02807454286749        0.23109202132060       -3.47788851958965
C           66.79359819265576        0.22203256413070       -2.82534483871940
C           65.51715680712201        0.26770009153994       -3.48105019749892
C           64.56945865870637        0.21577954829875       -2.51125987073239
N           66.60296669824773        0.13171542599145       -1.47210242822718
C           65.25860372113287        0.13058437785015       -1.25869943838907
C           64.62064021163268        0.04348360798203       -0.00923565472425
C           65.27647770991031       -0.06519374892187        1.22932511547826
C           64.60496374464650       -0.17960870779313        2.48905302574908
C           65.56622190061492       -0.27047507403966        3.44253649011964
C           66.83328943694876       -0.20456840368866        2.77070849135552
C           68.07700249441555       -0.28121625105774        3.40096212522537
C           68.08924495706502       -0.37963816781848        4.88096604838109
C           68.62709769777923       -1.50492486319509        5.51110601890899
C           68.64042804735678       -1.59275456426214        6.89092646257314
C           68.12019601328906       -0.55528748165410        7.66704817321846
C           68.16269659006406       -0.69297462754150        9.14245184164825
O           67.63895688661847        0.35586354694955        9.79499849931777
O           68.61983745978320       -1.64374423646938        9.72425953658336
C           67.58218455550013        0.57058270632463        7.04286625460902
C           67.56586156443696        0.65412733817938        5.66154837598608
C           69.31123594438203       -0.27214749551506        2.74667835330277
C           70.59333948592807       -0.30938986185037        3.39699788698497
C           71.53559335018295       -0.27213392462435        2.42289615194816
C           70.83919288311752       -0.20094869909553        1.17017511249103
N           69.49197985066246       -0.19736820165224        1.39569603046116
N           66.62371079494524       -0.08837861724546        1.42214278097543
C           68.01935544467196        0.35083913671107       -4.95639874814271
C           68.53386806211965       -0.67601384844945       -5.75238886999131
C           68.52590634893048       -0.56159887472209       -7.13033001925714
C           68.00746469523401        0.58347457146894       -7.73831875358738
C           68.02551002697585        0.66125315395442       -9.21850636846381
O           67.50468866325491        1.79901675964463       -9.70334637277477
O           68.46044392696795       -0.20041657158190       -9.93962243562227
C           67.49361894604367        1.61222997195297       -6.94801374273810
C           67.49855723239476        1.49344316534851       -5.56921695287413
H           72.53902906339520       -0.14719308152523       -0.07950369330639
H           72.57127352363693        0.08056290515925       -2.68258243901101
H           70.68063175569945        0.30087965438577       -4.57866791776129
H           65.36866926584840        0.31824538477516       -4.54750955953711
H           63.49723840384490        0.22706464188917       -2.62438728532909
H           63.53444908870425       -0.19406326551150        2.61685054809605
H           65.43280052894990       -0.38651361530039        4.50586745054354
H           69.02050712202821       -2.31679188462529        4.90998040886395
H           69.05240345419867       -2.46508733738662        7.38637785590628
H           67.70582877008829        0.18877536064181       10.74912110342156
H           67.17961621826939        1.37922817149313        7.64133477226120
H           67.15944562801064        1.53473315621150        5.17691006195277
H           70.74587072058047       -0.34652165514994        4.46358239255901
H           72.60888104792588       -0.28355147367850        2.52887740467745
H           68.92587332923711       -1.57113984030052       -5.28255574047000
H           68.91973553228516       -1.35653578189490       -7.75420465750099
H           67.55454694419431        1.77166823104663      -10.67265120372391
H           67.09225143007957        2.50378177407901       -7.41576061905995
H           67.11057082812951        2.29813688816647       -4.95462915166001
C           35.66486982127920        0.03480762837329       -0.02501828855168
C           36.88894084949825        0.03937333463044       -0.03039211012960
C           38.23236480488328        0.03956489104487       -0.03570296094071
C           39.46260457899930        0.03438231654738       -0.04022969441124
C           40.80116901332777        0.02763281556053       -0.04044519432070
C           42.03136433508809        0.01336231408210       -0.04352066647513
C           43.37456606094138        0.00654756831682       -0.03854716538611
C           44.59881357873866       -0.00151241984323       -0.03146013745088
C           54.28032285429468        0.02655271947037        0.00831324800976
C           55.50457815458488        0.03438609084107        0.01541609455550
C           56.84776229688878        0.04445710556253        0.01891553177693
C           58.07800149727576        0.05373670208270        0.01936779365407
C           59.41655522110914        0.06069516165666        0.01830776766054
C           60.64679029032461        0.06382129579431        0.01509286481435
C           61.99023753825404        0.06170985488627        0.00757995830197
C           63.21427692543119        0.05454381418803        0.00182270303373
Cu          49.43960473276501        0.01033680823235       -0.01325465601474
C           46.00455147744474        0.00062449556123       -0.02607676170005
C           46.65580747224210       -1.24525142781786        0.00202866281842
C           45.98153643406916       -2.50856687043677       -0.01936025341444
C           46.93983880273905       -3.46843416755306        0.02812188763433
C           48.20646691295515       -2.79541261378442        0.08825005921809
N           48.00074652121991       -1.44207175984465        0.06192455307095
C           49.44886238327665       -3.43096031442454        0.14380518911362
C           50.68797410403945       -2.78655197305389        0.14207533868917
C           51.95792224329032       -3.44432868680684        0.26595773382086
C           52.91111741581180       -2.47893659350150        0.22735184559087
N           50.88661783050664       -1.43546892345871        0.04435404516082
C           52.23032603365930       -1.22660804753534        0.08840838645312
C           52.87463485243854        0.02022364168369        0.00095124047698
C           52.22324379817097        1.26302408511359       -0.09375940651412
C           52.89801381867161        2.51895238047175       -0.22929159739711
C           51.93970973073625        3.47880716150595       -0.27789828149912
C           50.67270155366155        2.81394379640790       -0.16268411918434
C           49.43024812007912        3.45166274112564       -0.17219254331635
C           49.42617034009881        4.93341909214681       -0.23977771283719
C           50.00573204993422        5.68977726550663        0.78224586936475
C           49.99791223400626        7.07102025701700        0.71896548488018
C           49.41576605335428        7.72208954493425       -0.37034137619321
C           49.43565389710569        9.20409765203358       -0.39561555514227
O           48.85095835978553        9.73039054763552       -1.48268420993165
O           49.92215613199263        9.89292091178541        0.46482491115685
C           48.83804834103361        6.97137184660986       -1.39477125056180
C           48.84192372484416        5.58919681560362       -1.32634540079494
C           48.19107522008350        2.80938025857547       -0.12315729286337
C           46.92054707606503        3.47526948136441       -0.06853451067256
C           45.96740086070238        2.50995178094066       -0.02790678069412
C           46.64884818595134        1.25046331103612       -0.04786116467837
N           47.99287110886098        1.45497277181395       -0.09968855899897
N           50.87806681548001        1.46408873135034       -0.06165646216828
C           49.45282672526329       -4.91291791745124        0.21038761020179
C           48.86897895822505       -5.57410512382077        1.29415152150138
C           48.87588431158092       -6.95545571246439        1.35516117909876
C           49.46113455092831       -7.70211271858869        0.33075900233914
C           49.44012217357947       -9.18044767640906        0.43905117335416
O           50.02248283078280       -9.80308705855068       -0.59700329443270
O           48.95301002529486       -9.78857806574903        1.35797760376935
C           50.04320741716257       -7.04683363271846       -0.75484971210233
C           50.04055139034747       -5.66402905224989       -0.81061840820692
H           44.91200482552180       -2.63461110508593       -0.07199179443366
H           46.80539441163825       -4.53780620168418        0.01052408384521
H           52.09809213905018       -4.50679168130033        0.38211330030479
H           53.98111930806458       -2.59389885288797        0.29413594143953
H           53.96782533949457        2.64015792198212       -0.28712421274193
H           52.07483334881700        4.54176740481432       -0.39533966796911
H           50.44813317289901        5.18618485303843        1.63426320936234
H           50.44108833403842        7.66393705057438        1.51149812473869
H           48.90540970494062       10.69795260665677       -1.42310018699888
H           48.38796707022649        7.47239084258766       -2.24360662806736
H           48.40312719422719        5.00589898559245       -2.12800122006600
H           46.77971778244552        4.54379565314248       -0.04945724976665
H           44.89700162700394        2.63024322932729        0.02003499224966
H           48.42388861385048       -4.99591868346393        2.09594232452129
H           48.42965026113409       -7.47475907101477        2.19620336028372
H           49.96666145879622      -10.76132996102902       -0.45056065603627
H           50.49574642636596       -7.62230899895563       -1.55375210981219
H           50.48290446611307       -5.15525398259845       -1.65972632794101

          :  Hamiltonian                  GFN1-xTB          :
         :: total energy            -387.558646169199 Eh    ::
         :: gradient norm              0.000971135885 Eh/a0 ::
         :: HOMO-LUMO gap              0.000030720448 eV    ::
         :: SCC energy              -393.400709178773 Eh    ::
         :: repulsion energy           6.018823833209 Eh    ::

    * Orbital Energies and Occupations

         #    Occupation            Energy/Eh            Energy/eV
      -------------------------------------------------------------
         1        2.0000           -0.8328619             -22.6633
       ...           ...                  ...                  ...
       335        2.0000           -0.4181934             -11.3796
       336        2.0000           -0.4180190             -11.3749
       337        2.0000           -0.4178953             -11.3715
       338        2.0000           -0.4177795             -11.3684
       339        2.0000           -0.4141461             -11.2695
       340        2.0000           -0.4058758             -11.0444
       341        2.0000           -0.4058375             -11.0434
       342        2.0000           -0.4058297             -11.0432
       343        2.0000           -0.3949467             -10.7470
       344        2.0000           -0.3948186             -10.7436
       345        2.0000           -0.3914064             -10.6507
       346        1.0224           -0.3660382              -9.9604
       347        0.9891           -0.3659669              -9.9585 (HOMO)
       348        0.9885           -0.3659658              -9.9584 (LUMO)
       349                         -0.3476669              -9.4605
       350                         -0.3436812              -9.3520
       351                         -0.3435433              -9.3483
       352                         -0.3398068              -9.2466
       353                         -0.3397953              -9.2463
       354                         -0.3397021              -9.2438
       355                         -0.3211375              -8.7386
       356                         -0.3158560              -8.5949
       357                         -0.3158502              -8.5947
       358                         -0.3089275              -8.4063
       ...                                ...                  ...
       707                          1.5993701              43.5211
      -------------------------------------------------------------
                  HL-Gap            0.0000011 Eh            0.0000 eV

Wiberg/Mayer (AO) data.
largest (>0.10) Wiberg bond orders for each atom

     #   Z sym  total        # sym  WBO       # sym  WBO       # sym  WBO
 ---------------------------------------------------------------------------
     1  29 Cu   2.190 --    33 N    0.506     7 N    0.506    12 N    0.503
                            34 N    0.503
     2   6 C    3.931 --     3 C    1.362    32 C    1.362    44 H    0.971
     3   6 C    3.916 --     2 C    1.362     7 N    1.228     4 C    1.170
     4   6 C    3.955 --     5 C    1.657     3 C    1.170    45 H    0.975
     5   6 C    3.958 --     4 C    1.657     6 C    1.171    46 H    0.973
     6   6 C    3.913 --     8 C    1.319     7 N    1.239     5 C    1.171
     7   7 N    3.245 --     6 C    1.239     3 C    1.228     1 Cu   0.506
     8   6 C    3.934 --     9 C    1.325     6 C    1.319    35 C    1.029
     9   6 C    3.908 --     8 C    1.325    12 N    1.223    10 C    1.178
    10   6 C    3.954 --    11 C    1.644     9 C    1.178    47 H    0.973
    11   6 C    3.956 --    10 C    1.644    13 C    1.186    48 H    0.974
    12   7 N    3.249 --    13 C    1.255     9 C    1.223     1 Cu   0.503
    13   6 C    3.896 --    14 C    1.261    12 N    1.255    11 C    1.186
    14   6 C    3.941 --    13 C    1.261    15 C    1.261   125 C    1.185
    15   6 C    3.896 --    14 C    1.261    34 N    1.255    16 C    1.186
    16   6 C    3.956 --    17 C    1.643    15 C    1.186    49 H    0.974
    17   6 C    3.954 --    16 C    1.643    18 C    1.179    50 H    0.973
    18   6 C    3.908 --    19 C    1.325    34 N    1.223    17 C    1.179
    19   6 C    3.934 --    18 C    1.325    29 C    1.319    20 C    1.029
    20   6 C    3.986 --    28 C    1.387    21 C    1.385    19 C    1.029
    21   6 C    3.987 --    22 C    1.464    20 C    1.385    51 H    0.972
                            27 C    0.103
    22   6 C    3.990 --    21 C    1.464    23 C    1.385    52 H    0.968
                            28 C    0.103
    23   6 C    3.983 --    27 C    1.388    22 C    1.385    24 C    1.010
    24   6 C    3.836 --    26 O    1.689    25 O    1.088    23 C    1.010
    25   8 O    2.096 --    24 C    1.088    53 H    0.838    26 O    0.128
    26   8 O    1.958 --    24 C    1.689    25 O    0.128
    27   6 C    3.991 --    28 C    1.461    23 C    1.388    54 H    0.970
                            21 C    0.103
    28   6 C    3.988 --    27 C    1.461    20 C    1.387    55 H    0.972
                            22 C    0.103
    29   6 C    3.913 --    19 C    1.319    33 N    1.239    30 C    1.171
    30   6 C    3.958 --    31 C    1.657    29 C    1.171    56 H    0.973
    31   6 C    3.955 --    30 C    1.657    32 C    1.170    57 H    0.975
    32   6 C    3.916 --     2 C    1.362    33 N    1.228    31 C    1.170
    33   7 N    3.245 --    29 C    1.239    32 C    1.228     1 Cu   0.506
    34   7 N    3.248 --    15 C    1.255    18 C    1.223     1 Cu   0.503
    35   6 C    3.986 --    43 C    1.387    36 C    1.385     8 C    1.029
    36   6 C    3.987 --    37 C    1.464    35 C    1.385    58 H    0.972
                            42 C    0.103
    37   6 C    3.990 --    36 C    1.464    38 C    1.385    59 H    0.968
                            43 C    0.103
    38   6 C    3.983 --    42 C    1.388    37 C    1.385    39 C    1.010
    39   6 C    3.836 --    41 O    1.690    40 O    1.088    38 C    1.010
    40   8 O    2.096 --    39 C    1.088    60 H    0.838    41 O    0.128
    41   8 O    1.958 --    39 C    1.690    40 O    0.128
    42   6 C    3.991 --    43 C    1.462    38 C    1.388    61 H    0.970
                            36 C    0.103
    43   6 C    3.988 --    42 C    1.462    35 C    1.387    62 H    0.972
                            37 C    0.103
    44   1 H    1.001 --     2 C    0.971
    45   1 H    0.997 --     4 C    0.975
    46   1 H    1.004 --     5 C    0.973
    47   1 H    1.004 --    10 C    0.973
    48   1 H    1.001 --    11 C    0.974
    49   1 H    1.002 --    16 C    0.974
    50   1 H    1.004 --    17 C    0.973
    51   1 H    1.004 --    21 C    0.972
    52   1 H    1.005 --    22 C    0.968
    53   1 H    0.873 --    25 O    0.838
    54   1 H    1.005 --    27 C    0.970
    55   1 H    1.004 --    28 C    0.972
    56   1 H    1.004 --    30 C    0.973
    57   1 H    0.997 --    31 C    0.975
    58   1 H    1.004 --    36 C    0.972
    59   1 H    1.005 --    37 C    0.968
    60   1 H    0.873 --    40 O    0.838
    61   1 H    1.005 --    42 C    0.970
    62   1 H    1.004 --    43 C    0.972
    63  29 Cu   2.190 --    69 N    0.506    95 N    0.506    96 N    0.503
                            74 N    0.503
    64   6 C    3.931 --    65 C    1.362    94 C    1.362   106 H    0.971
    65   6 C    3.916 --    64 C    1.362    69 N    1.228    66 C    1.170
    66   6 C    3.955 --    67 C    1.657    65 C    1.170   107 H    0.975
    67   6 C    3.958 --    66 C    1.657    68 C    1.171   108 H    0.973
    68   6 C    3.913 --    70 C    1.319    69 N    1.239    67 C    1.171
    69   7 N    3.245 --    68 C    1.239    65 C    1.228    63 Cu   0.506
    70   6 C    3.934 --    71 C    1.325    68 C    1.319    97 C    1.029
    71   6 C    3.908 --    70 C    1.325    74 N    1.223    72 C    1.178
    72   6 C    3.954 --    73 C    1.644    71 C    1.178   109 H    0.973
    73   6 C    3.956 --    72 C    1.644    75 C    1.186   110 H    0.974
    74   7 N    3.248 --    75 C    1.255    71 C    1.223    63 Cu   0.503
    75   6 C    3.896 --    76 C    1.261    74 N    1.255    73 C    1.186
    76   6 C    3.941 --    75 C    1.261    77 C    1.261   140 C    1.185
    77   6 C    3.896 --    76 C    1.261    96 N    1.255    78 C    1.186
    78   6 C    3.956 --    79 C    1.643    77 C    1.186   111 H    0.974
    79   6 C    3.954 --    78 C    1.643    80 C    1.178   112 H    0.973
    80   6 C    3.908 --    81 C    1.325    96 N    1.223    79 C    1.178
    81   6 C    3.934 --    80 C    1.325    91 C    1.319    82 C    1.029
    82   6 C    3.986 --    90 C    1.387    83 C    1.385    81 C    1.029
    83   6 C    3.987 --    84 C    1.464    82 C    1.385   113 H    0.972
                            89 C    0.103
    84   6 C    3.990 --    83 C    1.464    85 C    1.385   114 H    0.968
                            90 C    0.103
    85   6 C    3.983 --    89 C    1.388    84 C    1.385    86 C    1.010
    86   6 C    3.836 --    88 O    1.690    87 O    1.088    85 C    1.010
    87   8 O    2.096 --    86 C    1.088   115 H    0.838    88 O    0.128
    88   8 O    1.958 --    86 C    1.690    87 O    0.128
    89   6 C    3.991 --    90 C    1.461    85 C    1.388   116 H    0.970
                            83 C    0.103
    90   6 C    3.988 --    89 C    1.461    82 C    1.387   117 H    0.972
                            84 C    0.103
    91   6 C    3.913 --    81 C    1.319    95 N    1.239    92 C    1.171
    92   6 C    3.958 --    93 C    1.657    91 C    1.171   118 H    0.973
    93   6 C    3.955 --    92 C    1.657    94 C    1.170   119 H    0.975
    94   6 C    3.916 --    64 C    1.362    95 N    1.229    93 C    1.170
    95   7 N    3.245 --    91 C    1.239    94 C    1.229    63 Cu   0.506
    96   7 N    3.249 --    77 C    1.255    80 C    1.223    63 Cu   0.503
    97   6 C    3.986 --   105 C    1.387    98 C    1.385    70 C    1.029
    98   6 C    3.987 --    99 C    1.464    97 C    1.385   120 H    0.972
                           104 C    0.102
    99   6 C    3.990 --    98 C    1.464   100 C    1.385   121 H    0.968
                           105 C    0.103
   100   6 C    3.983 --   104 C    1.388    99 C    1.385   101 C    1.010
   101   6 C    3.836 --   103 O    1.689   102 O    1.088   100 C    1.010
   102   8 O    2.096 --   101 C    1.088   122 H    0.838   103 O    0.128
   103   8 O    1.958 --   101 C    1.689   102 O    0.128
   104   6 C    3.991 --   105 C    1.462   100 C    1.388   123 H    0.970
                            98 C    0.102
   105   6 C    3.988 --   104 C    1.462    97 C    1.387   124 H    0.972
                            99 C    0.103
   106   1 H    1.001 --    64 C    0.971
   107   1 H    0.997 --    66 C    0.975
   108   1 H    1.004 --    67 C    0.973
   109   1 H    1.004 --    72 C    0.973
   110   1 H    1.002 --    73 C    0.974
   111   1 H    1.001 --    78 C    0.974
   112   1 H    1.004 --    79 C    0.973
   113   1 H    1.004 --    83 C    0.972
   114   1 H    1.005 --    84 C    0.968
   115   1 H    0.873 --    87 O    0.838
   116   1 H    1.005 --    89 C    0.970
   117   1 H    1.004 --    90 C    0.972
   118   1 H    1.004 --    92 C    0.973
   119   1 H    0.997 --    93 C    0.975
   120   1 H    1.004 --    98 C    0.972
   121   1 H    1.005 --    99 C    0.968
   122   1 H    0.873 --   102 O    0.838
   123   1 H    1.005 --   104 C    0.970
   124   1 H    1.004 --   105 C    0.972
   125   6 C    3.877 --   126 C    2.446    14 C    1.185   128 C    0.187
   126   6 C    3.936 --   125 C    2.446   127 C    1.339
   127   6 C    3.892 --   128 C    2.342   126 C    1.339   130 C    0.182
   128   6 C    3.926 --   127 C    2.342   129 C    1.365   125 C    0.187
   129   6 C    3.924 --   130 C    2.341   128 C    1.365   132 C    0.186
   130   6 C    3.893 --   129 C    2.341   131 C    1.340   127 C    0.182
   131   6 C    3.933 --   132 C    2.443   130 C    1.340
   132   6 C    3.877 --   131 C    2.443   142 C    1.188   129 C    0.186
   133   6 C    3.877 --   134 C    2.443   154 C    1.188   136 C    0.186
   134   6 C    3.933 --   133 C    2.443   135 C    1.340
   135   6 C    3.893 --   136 C    2.341   134 C    1.340   138 C    0.182
   136   6 C    3.924 --   135 C    2.341   137 C    1.365   133 C    0.186
   137   6 C    3.926 --   138 C    2.342   136 C    1.365   140 C    0.187
   138   6 C    3.892 --   137 C    2.342   139 C    1.339   135 C    0.182
   139   6 C    3.936 --   140 C    2.446   138 C    1.339
   140   6 C    3.877 --   139 C    2.446    76 C    1.185   137 C    0.187
   141  29 Cu   2.157 --   147 N    0.497   174 N    0.497   152 N    0.497
                           173 N    0.497
   142   6 C    3.930 --   143 C    1.259   172 C    1.258   132 C    1.188
   143   6 C    3.897 --   142 C    1.259   147 N    1.258   144 C    1.186
   144   6 C    3.955 --   145 C    1.643   143 C    1.186   184 H    0.974
   145   6 C    3.955 --   144 C    1.643   146 C    1.179   185 H    0.973
   146   6 C    3.906 --   148 C    1.322   147 N    1.224   145 C    1.179
   147   7 N    3.241 --   143 C    1.258   146 C    1.224   141 Cu   0.497
   148   6 C    3.930 --   146 C    1.322   149 C    1.322   175 C    1.029
   149   6 C    3.906 --   148 C    1.322   152 N    1.224   150 C    1.179
   150   6 C    3.955 --   151 C    1.642   149 C    1.179   186 H    0.973
   151   6 C    3.955 --   150 C    1.642   153 C    1.186   187 H    0.974
   152   7 N    3.241 --   153 C    1.258   149 C    1.224   141 Cu   0.497
   153   6 C    3.897 --   154 C    1.258   152 N    1.258   151 C    1.186
   154   6 C    3.930 --   153 C    1.258   155 C    1.258   133 C    1.188
   155   6 C    3.897 --   174 N    1.258   154 C    1.258   156 C    1.186
   156   6 C    3.955 --   157 C    1.642   155 C    1.186   188 H    0.974
   157   6 C    3.955 --   156 C    1.642   158 C    1.179   189 H    0.973
   158   6 C    3.906 --   159 C    1.322   174 N    1.224   157 C    1.179
   159   6 C    3.930 --   158 C    1.322   169 C    1.322   160 C    1.030
   160   6 C    3.986 --   168 C    1.386   161 C    1.385   159 C    1.030
   161   6 C    3.987 --   162 C    1.464   160 C    1.385   190 H    0.972
                           167 C    0.103
   162   6 C    3.990 --   161 C    1.464   163 C    1.385   191 H    0.968
                           168 C    0.103
   163   6 C    3.983 --   167 C    1.388   162 C    1.385   164 C    1.010
   164   6 C    3.836 --   166 O    1.690   165 O    1.088   163 C    1.010
   165   8 O    2.096 --   164 C    1.088   192 H    0.838   166 O    0.128
   166   8 O    1.958 --   164 C    1.690   165 O    0.128
   167   6 C    3.991 --   168 C    1.462   163 C    1.388   193 H    0.970
                           161 C    0.103
   168   6 C    3.987 --   167 C    1.462   160 C    1.386   194 H    0.972
                           162 C    0.103
   169   6 C    3.906 --   159 C    1.322   173 N    1.224   170 C    1.180
   170   6 C    3.955 --   171 C    1.642   169 C    1.180   195 H    0.973
   171   6 C    3.955 --   170 C    1.642   172 C    1.186   196 H    0.974
   172   6 C    3.897 --   173 N    1.258   142 C    1.258   171 C    1.186
   173   7 N    3.241 --   172 C    1.258   169 C    1.224   141 Cu   0.497
   174   7 N    3.241 --   155 C    1.258   158 C    1.224   141 Cu   0.497
   175   6 C    3.986 --   183 C    1.387   176 C    1.385   148 C    1.029
   176   6 C    3.987 --   177 C    1.464   175 C    1.385   197 H    0.972
                           182 C    0.103
   177   6 C    3.990 --   176 C    1.464   178 C    1.385   198 H    0.968
                           183 C    0.103
   178   6 C    3.983 --   182 C    1.388   177 C    1.385   179 C    1.009
   179   6 C    3.836 --   181 O    1.690   180 O    1.088   178 C    1.009
   180   8 O    2.096 --   179 C    1.088   199 H    0.838   181 O    0.128
   181   8 O    1.958 --   179 C    1.690   180 O    0.128
   182   6 C    3.991 --   183 C    1.461   178 C    1.388   200 H    0.970
                           176 C    0.103
   183   6 C    3.987 --   182 C    1.461   175 C    1.387   201 H    0.972
                           177 C    0.103
   184   1 H    1.001 --   144 C    0.974
   185   1 H    1.004 --   145 C    0.973
   186   1 H    1.004 --   150 C    0.973
   187   1 H    1.001 --   151 C    0.974
   188   1 H    1.001 --   156 C    0.974
   189   1 H    1.004 --   157 C    0.973
   190   1 H    1.004 --   161 C    0.972
   191   1 H    1.005 --   162 C    0.968
   192   1 H    0.873 --   165 O    0.838
   193   1 H    1.005 --   167 C    0.970
   194   1 H    1.004 --   168 C    0.972
   195   1 H    1.004 --   170 C    0.973
   196   1 H    1.002 --   171 C    0.974
   197   1 H    1.004 --   176 C    0.972
   198   1 H    1.005 --   177 C    0.968
   199   1 H    0.873 --   180 O    0.838
   200   1 H    1.005 --   182 C    0.970
   201   1 H    1.004 --   183 C    0.972
 ---------------------------------------------------------------------------

           -------------------------------------------------
          | TOTAL ENERGY             -387.558646169199 Eh   |
          | GRADIENT NORM               0.000971135885 Eh/α |
          | HOMO-LUMO GAP               0.000030720448 eV   |
           -------------------------------------------------

 * finished run on 2022/07/30 at 10:13:34.835
