   * xtb version 6.5.1 (b24c23e) compiled by 'conda@728c89f4b128' on 2022-07-12
          program call               : xtb Zn_PhCHO_C6_2.xyz --gfn 1 --opt -T 48

   ID    Z sym.   atoms
    1   30 Zn     1, 61
    2    6 C      2-6, 8-13, 15-19, 21-26, 28-33, 35-40, 62-66, 68-73, 75-79,
                  81-86, 88-93, 95-100, 121-126
    3    7 N      7, 20, 27, 41, 67, 80, 87, 101
    4    8 O      14, 34, 74, 94
    5    1 H      42-60, 102-120
########################################################################
[WARNING] Please study the warnings concerning your input carefully
-1- prog_main_parseArguments: Unknown option '-T' provided
########################################################################

          :  Hamiltonian                  GFN1-xTB          :
 * total energy  :  -222.4271111 Eh     change       -0.2071943E-09 Eh
 * total energy  :  -222.5202806 Eh     change       -0.9316946E-01 Eh
 * total energy  :  -222.5642748 Eh     change       -0.4399426E-01 Eh
 * total energy  :  -222.5740284 Eh     change       -0.9753555E-02 Eh
 * total energy  :  -222.5795588 Eh     change       -0.5530390E-02 Eh
 * total energy  :  -222.5823143 Eh     change       -0.2755475E-02 Eh
 * total energy  :  -222.5846838 Eh     change       -0.2369488E-02 Eh
 * total energy  :  -222.5859009 Eh     change       -0.1217189E-02 Eh
 * total energy  :  -222.5869476 Eh     change       -0.1046649E-02 Eh
 * total energy  :  -222.5875140 Eh     change       -0.5663953E-03 Eh
 * total energy  :  -222.5907187 Eh     change       -0.1980638E-04 Eh
 * total energy  :  -222.5907448 Eh     change       -0.2609093E-04 Eh
 * total energy  :  -222.5907560 Eh     change       -0.1119129E-04 Eh
 * total energy  :  -222.5907712 Eh     change       -0.1523386E-04 Eh
 * total energy  :  -222.5907839 Eh     change       -0.1266738E-04 Eh
 * total energy  :  -222.5907916 Eh     change       -0.7678615E-05 Eh
 * total energy  :  -222.5907956 Eh     change       -0.4040595E-05 Eh
 * total energy  :  -222.5907963 Eh     change       -0.6831619E-06 Eh
 * total energy  :  -222.5908009 Eh     change       -0.4629644E-05 Eh
   *** GEOMETRY OPTIMIZATION CONVERGED AFTER 41 ITERATIONS ***

 final structure:
================
126
 xtb: 6.5.1 (b24c23e)
Zn          14.54595384916904        0.03799213796045       -0.03071164820442
C           11.13695396036030        0.07799459817583       -0.09794985602785
C           11.76653266921783        1.30697519045030        0.05701119624926
C           11.09187791679961        2.56279220803831        0.23067794122485
C           12.05027997016201        3.51239215467615        0.36970416009153
C           13.32363695084359        2.84876778139471        0.27050447887422
N           13.11620417326571        1.51313979784184        0.08899997947494
C           14.57544726095605        3.46814188493757        0.37768250058858
C           14.58996647677836        4.93778816104838        0.57021417907843
C           15.15340417115156        5.49341503786579        1.72341223819582
C           15.16418296168397        6.86253066158251        1.90598826019711
C           14.61630979709290        7.70996803777676        0.93696649687323
C           14.64259501689295        9.16744433070314        1.15264260757496
O           15.11302438154154        9.69197278928742        2.12993302592529
C           14.05555258482830        7.15688234350119       -0.21701000167068
C           14.04065727051993        5.78518404703343       -0.39635620235349
C           15.81502619800657        2.82025859198689        0.32330532769773
C           17.09491129951394        3.47169069306197        0.37293315577721
C           18.04060261867435        2.50358368587195        0.26944558842817
N           16.00756383858805        1.47279059317101        0.17697746327494
C           17.34953765265546        1.25364818833675        0.14839212876425
C           17.98081125093291        0.00053478829830        0.01313101588072
C           17.32707247712487       -1.23983965872473       -0.13020696864542
C           17.99461763268364       -2.49830421119980       -0.28841602725328
C           17.03084316618981       -3.44691085088458       -0.40577245550936
C           15.76325271450013       -2.77633565676159       -0.31252989241061
N           15.98112301486970       -1.43422736783908       -0.15343102183318
C           14.51147043366325       -3.39526825484107       -0.40914295698313
C           14.49505783684241       -4.87005923214600       -0.55871624490248
C           13.93737437820649       -5.45969783420585       -1.69697270306598
C           13.91891178390969       -6.83584790997296       -1.83699901507425
C           14.45349353622992       -7.65239069500264       -0.83727176118009
C           14.44073671352718       -9.12076548964835       -0.96011727695881
O           14.88624704328976       -9.86714353901229       -0.12608591761730
C           15.01049696458357       -7.06323481901940        0.30284580065386
C           15.03362817460239       -5.68877051986933        0.43897020046908
C           13.27190006838753       -2.74378150641237       -0.37321761656494
C           11.98620322770922       -3.38871407202580       -0.42671641541318
C           11.04584116679037       -2.41488155979867       -0.34426224422599
C           11.74393719138870       -1.16519475935409       -0.22809377792498
N           13.08935594561356       -1.39822266853475       -0.24558450048429
H           10.05139704243403        0.08833564869679       -0.10351440499563
H           10.02073694579964        2.68889283652152        0.25117036763439
H           11.91136470332893        4.56825733811651        0.53831254807590
H           15.56724533575720        4.83870655248452        2.48206189679275
H           15.59413684711851        7.30044720498506        2.80042789181944
H           14.18653385144475        9.75812314425039        0.32931609693884
H           13.63271520898341        7.80735321692902       -0.97572879755410
H           13.61731057218311        5.36016976514307       -1.29956531410926
H           17.24935056411267        4.53502170363116        0.46034188306101
H           19.11268026731946        2.61935958185544        0.26829304834818
H           19.06455717943247       -2.63063265870158       -0.31206888160429
H           17.16508293537171       -4.50590511775855       -0.55674987258440
H           13.53305342544693       -4.82849227448644       -2.48042032035527
H           13.48926924997459       -7.28437444389857       -2.72696268593987
H           13.97958912605004       -9.49541002714081       -1.89894348440761
H           15.41978262862731       -7.70489795424929        1.07579781854384
H           15.45396020583840       -5.23576947757698        1.32985691130211
H           11.82718214098247       -4.45243063718608       -0.50307490223150
H            9.97249244049374       -2.52217857339202       -0.35128773694746
Zn          30.59151402836135       -0.03374146831271       -0.03571781930661
C           34.00051178657247       -0.06354474006718       -0.10777708024510
C           33.37110264964440       -1.30217169054002       -0.12854949613487
C           34.04585565774038       -2.56988189854150       -0.13451594570798
C           33.08750257341467       -3.52965903502905       -0.13219759931365
C           31.81412724213964       -2.85874737654325       -0.13684235204386
N           32.02145656497240       -1.51085121831083       -0.12668299416500
C           30.56236242927183       -3.48712213208564       -0.11997336886751
C           30.54796344069874       -4.96922829429311       -0.13869765599962
C           29.98492951106127       -5.68347997267959        0.92378483032439
C           29.97429370224872       -7.06464433264395        0.90945510725452
C           30.52171421375656       -7.76534075782990       -0.17069494786804
C           30.49518256746054       -9.23868196829738       -0.16502244647789
O           30.02510685851809       -9.89710788340621        0.72775957407576
C           31.08207098720758       -7.05346067502645       -1.23430895916657
C           31.09699057839934       -5.67019980426095       -1.21632720481790
C           29.32274070394573       -2.83816162919920       -0.08255633456871
C           28.04297265311015       -3.49014358310527       -0.12746676480376
C           27.09717475448047       -2.51724553020700       -0.09232990001759
N           29.13007925040894       -1.48363643905045       -0.03514016936259
C           27.78808328617931       -1.26279298142438       -0.03301387661866
C           27.15665800189987       -0.00329168807900        0.01238630138205
C           27.81028091547459        1.24489903769954        0.04804807389507
C           27.14256402287369        2.51295201637501        0.07148554151088
C           28.10621172485695        3.46872774091381        0.09044855796403
C           29.37391335632725        2.79191529180617        0.08662799858078
N           29.15618564872011        1.44080003576100        0.05256312984862
C           30.62566446010773        3.41845429206349        0.07863935111394
C           30.64197116977707        4.89947036640070        0.14050449808544
C           31.20110246277494        5.64503468520222       -0.90155486780095
C           31.21997544610835        7.02708677993833       -0.84422278168949
C           30.68405351753311        7.69318836502075        0.26080425303867
C           30.69727872578500        9.16406356730330        0.34824588750980
O           30.25030827866792        9.78427837993761        1.27922100909911
C           30.12522373876610        6.94789071416354        1.30460714544553
C           30.10196914558267        5.56805857016641        1.24378223578293
C           31.86528479841135        2.76855467515285        0.02085315149680
C           33.15098517893482        3.41460902817351        0.05902392741168
C           34.09137517020070        2.43900261945776        0.00182246999423
C           33.39335834362120        1.18544735722882       -0.06034725758051
N           32.04791236347124        1.41853138107085       -0.04410698459278
H           35.08607069881356       -0.07280479208086       -0.11478651479452
H           35.11700825277353       -2.69752594888211       -0.13153901386608
H           33.22640490118253       -4.59877040282522       -0.11516129006124
H           29.57123580309777       -5.14357234980811        1.76806389516131
H           29.54477330701678       -7.62555287388823        1.73258634713259
H           30.95030503306577       -9.70599737683409       -1.06450837168116
H           31.50454191566956       -7.58914922232375       -2.07817000411855
H           31.52001946484464       -5.12078123479385       -2.04989417255521
H           27.88872263022314       -4.55507590629534       -0.19292978751373
H           26.02513107089009       -2.63172209682405       -0.11099602279280
H           26.07260148421964        2.64718992731956        0.06722685858590
H           27.97172386583447        4.53839038527990        0.09224707964648
H           31.60632176432999        5.13166044607729       -1.76637530008838
H           31.65092337478776        7.59758490941098       -1.66069347141703
H           31.16058415897532        9.66835505014320       -0.52669296918574
H           29.71466148233657        7.47313436062875        2.16033310080366
H           29.68050006889756        4.99302676665284        2.06066182390889
H           33.31006113186821        4.47836968908961        0.13458417199433
H           35.16471512693305        2.54628695007787        0.00958689178504
C           23.18288744890103        0.00148847370244        0.01639349227072
C           21.95457043215626       -0.00488779401222        0.01653114096305
C           20.61017074543566       -0.00793140097844        0.01518212735100
C           19.38619201748012       -0.00943860948949        0.01436894239437
C           24.52729667894917        0.00482276834290        0.01559102407783
C           25.75126582138160        0.00621655116930        0.01486048252211

          :  Hamiltonian                  GFN1-xTB          :
         :: total energy            -222.590800913541 Eh    ::
         :: gradient norm              0.000713120762 Eh/a0 ::
         :: HOMO-LUMO gap              1.120762650494 eV    ::
         :: SCC energy              -226.110744210089 Eh    ::
         :: repulsion energy           3.630856052568 Eh    ::

    * Orbital Energies and Occupations

         #    Occupation            Energy/Eh            Energy/eV
      -------------------------------------------------------------
         1        2.0000           -0.7899109             -21.4946
       ...           ...                  ...                  ...
       189        2.0000           -0.4329556             -11.7813
       190        2.0000           -0.4329554             -11.7813
       191        2.0000           -0.4324703             -11.7681
       192        2.0000           -0.4324144             -11.7666
       193        2.0000           -0.4319952             -11.7552
       194        2.0000           -0.4319827             -11.7548
       195        2.0000           -0.4319622             -11.7543
       196        2.0000           -0.4261433             -11.5959
       197        2.0000           -0.4199819             -11.4283
       198        2.0000           -0.4047531             -11.0139
       199        2.0000           -0.4047521             -11.0139
       200        2.0000           -0.3989897             -10.8571
       201        2.0000           -0.3883884             -10.5686 (HOMO)
       202                         -0.3472011              -9.4478 (LUMO)
       203                         -0.3410457              -9.2803
       204                         -0.3410404              -9.2802
       205                         -0.3355037              -9.1295
       206                         -0.3255486              -8.8586
       207                         -0.3250661              -8.8455
       208                         -0.3199172              -8.7054
       209                         -0.3199087              -8.7052
       210                         -0.3053268              -8.3084
       211                         -0.2980375              -8.1100
       212                         -0.2913058              -7.9268
       ...                                ...                  ...
       428                          1.5728819              42.8003
      -------------------------------------------------------------
                  HL-Gap            0.0411873 Eh            1.1208 eV

Wiberg/Mayer (AO) data.
largest (>0.10) Wiberg bond orders for each atom

     #   Z sym  total        # sym  WBO       # sym  WBO       # sym  WBO
 ---------------------------------------------------------------------------
     1  30 Zn   1.993 --    41 N    0.459     7 N    0.458    20 N    0.455
                            27 N    0.455
     2   6 C    3.928 --     3 C    1.358    40 C    1.358    42 H    0.971
     3   6 C    3.920 --     2 C    1.358     7 N    1.232     4 C    1.170
     4   6 C    3.960 --     5 C    1.659     3 C    1.170    43 H    0.975
     5   6 C    3.963 --     4 C    1.659     6 C    1.171    44 H    0.973
     6   6 C    3.918 --     8 C    1.311     7 N    1.246     5 C    1.171
     7   7 N    3.293 --     6 C    1.246     3 C    1.232     1 Zn   0.458
     8   6 C    3.931 --    17 C    1.320     6 C    1.311     9 C    1.034
     9   6 C    3.985 --    16 C    1.382    10 C    1.379     8 C    1.034
    10   6 C    3.987 --    11 C    1.472     9 C    1.379    45 H    0.972
    11   6 C    3.988 --    10 C    1.472    12 C    1.368    46 H    0.968
    12   6 C    3.983 --    15 C    1.377    11 C    1.368    13 C    1.051
    13   6 C    3.864 --    14 O    1.806    12 C    1.051    47 H    0.942
    14   8 O    2.002 --    13 C    1.806
    15   6 C    3.993 --    16 C    1.466    12 C    1.377    48 H    0.971
    16   6 C    3.987 --    15 C    1.466     9 C    1.382    49 H    0.972
    17   6 C    3.912 --     8 C    1.320    20 N    1.227    18 C    1.178
    18   6 C    3.959 --    19 C    1.647    17 C    1.178    50 H    0.973
    19   6 C    3.962 --    18 C    1.647    21 C    1.186    51 H    0.974
    20   7 N    3.297 --    21 C    1.262    17 C    1.227     1 Zn   0.455
    21   6 C    3.900 --    20 N    1.262    22 C    1.254    19 C    1.186
    22   6 C    3.939 --    23 C    1.254    21 C    1.254   124 C    1.192
    23   6 C    3.900 --    27 N    1.262    22 C    1.254    24 C    1.186
    24   6 C    3.962 --    25 C    1.647    23 C    1.186    52 H    0.974
    25   6 C    3.959 --    24 C    1.647    26 C    1.178    53 H    0.973
    26   6 C    3.912 --    28 C    1.320    27 N    1.227    25 C    1.178
    27   7 N    3.296 --    23 C    1.262    26 C    1.227     1 Zn   0.455
    28   6 C    3.931 --    26 C    1.320    37 C    1.311    29 C    1.033
    29   6 C    3.985 --    30 C    1.382    36 C    1.380    28 C    1.033
    30   6 C    3.987 --    31 C    1.466    29 C    1.382    54 H    0.972
    31   6 C    3.993 --    30 C    1.466    32 C    1.377    55 H    0.971
    32   6 C    3.983 --    31 C    1.377    35 C    1.369    33 C    1.051
    33   6 C    3.864 --    34 O    1.806    32 C    1.051    56 H    0.942
    34   8 O    2.002 --    33 C    1.806
    35   6 C    3.988 --    36 C    1.472    32 C    1.369    57 H    0.968
    36   6 C    3.987 --    35 C    1.472    29 C    1.380    58 H    0.972
    37   6 C    3.918 --    28 C    1.311    41 N    1.246    38 C    1.171
    38   6 C    3.963 --    39 C    1.660    37 C    1.171    59 H    0.973
    39   6 C    3.960 --    38 C    1.660    40 C    1.170    60 H    0.975
    40   6 C    3.920 --     2 C    1.358    41 N    1.232    39 C    1.170
    41   7 N    3.293 --    37 C    1.246    40 C    1.232     1 Zn   0.459
    42   1 H    1.001 --     2 C    0.971
    43   1 H    0.998 --     4 C    0.975
    44   1 H    1.004 --     5 C    0.973
    45   1 H    1.004 --    10 C    0.972
    46   1 H    1.005 --    11 C    0.968
    47   1 H    1.010 --    13 C    0.942
    48   1 H    1.000 --    15 C    0.971
    49   1 H    1.004 --    16 C    0.972
    50   1 H    1.004 --    18 C    0.973
    51   1 H    1.002 --    19 C    0.974
    52   1 H    1.002 --    24 C    0.974
    53   1 H    1.004 --    25 C    0.973
    54   1 H    1.004 --    30 C    0.972
    55   1 H    1.000 --    31 C    0.971
    56   1 H    1.010 --    33 C    0.942
    57   1 H    1.005 --    35 C    0.968
    58   1 H    1.004 --    36 C    0.972
    59   1 H    1.004 --    38 C    0.973
    60   1 H    0.998 --    39 C    0.975
    61  30 Zn   1.993 --   101 N    0.459    67 N    0.458    80 N    0.455
                            87 N    0.455
    62   6 C    3.928 --    63 C    1.358   100 C    1.358   102 H    0.971
    63   6 C    3.920 --    62 C    1.358    67 N    1.232    64 C    1.170
    64   6 C    3.960 --    65 C    1.659    63 C    1.170   103 H    0.975
    65   6 C    3.963 --    64 C    1.659    66 C    1.171   104 H    0.973
    66   6 C    3.918 --    68 C    1.311    67 N    1.246    65 C    1.171
    67   7 N    3.293 --    66 C    1.246    63 C    1.232    61 Zn   0.458
    68   6 C    3.931 --    77 C    1.320    66 C    1.311    69 C    1.034
    69   6 C    3.985 --    76 C    1.382    70 C    1.379    68 C    1.034
    70   6 C    3.987 --    71 C    1.472    69 C    1.379   105 H    0.972
    71   6 C    3.988 --    70 C    1.472    72 C    1.368   106 H    0.968
    72   6 C    3.983 --    75 C    1.377    71 C    1.368    73 C    1.051
    73   6 C    3.864 --    74 O    1.806    72 C    1.051   107 H    0.942
    74   8 O    2.002 --    73 C    1.806
    75   6 C    3.993 --    76 C    1.466    72 C    1.377   108 H    0.971
    76   6 C    3.987 --    75 C    1.466    69 C    1.382   109 H    0.972
    77   6 C    3.912 --    68 C    1.320    80 N    1.227    78 C    1.178
    78   6 C    3.959 --    79 C    1.647    77 C    1.178   110 H    0.973
    79   6 C    3.962 --    78 C    1.647    81 C    1.186   111 H    0.974
    80   7 N    3.297 --    81 C    1.262    77 C    1.227    61 Zn   0.455
    81   6 C    3.900 --    80 N    1.262    82 C    1.254    79 C    1.186
    82   6 C    3.939 --    83 C    1.254    81 C    1.254   126 C    1.192
    83   6 C    3.900 --    87 N    1.262    82 C    1.254    84 C    1.186
    84   6 C    3.962 --    85 C    1.647    83 C    1.186   112 H    0.974
    85   6 C    3.959 --    84 C    1.647    86 C    1.178   113 H    0.973
    86   6 C    3.912 --    88 C    1.320    87 N    1.227    85 C    1.178
    87   7 N    3.296 --    83 C    1.262    86 C    1.227    61 Zn   0.455
    88   6 C    3.931 --    86 C    1.320    97 C    1.311    89 C    1.034
    89   6 C    3.985 --    90 C    1.382    96 C    1.380    88 C    1.034
    90   6 C    3.987 --    91 C    1.466    89 C    1.382   114 H    0.972
    91   6 C    3.993 --    90 C    1.466    92 C    1.377   115 H    0.971
    92   6 C    3.983 --    91 C    1.377    95 C    1.369    93 C    1.051
    93   6 C    3.864 --    94 O    1.806    92 C    1.051   116 H    0.942
    94   8 O    2.002 --    93 C    1.806
    95   6 C    3.988 --    96 C    1.472    92 C    1.369   117 H    0.968
    96   6 C    3.987 --    95 C    1.472    89 C    1.380   118 H    0.972
    97   6 C    3.918 --    88 C    1.311   101 N    1.246    98 C    1.171
    98   6 C    3.963 --    99 C    1.660    97 C    1.171   119 H    0.973
    99   6 C    3.960 --    98 C    1.660   100 C    1.170   120 H    0.975
   100   6 C    3.920 --    62 C    1.358   101 N    1.232    99 C    1.170
   101   7 N    3.293 --    97 C    1.246   100 C    1.232    61 Zn   0.459
   102   1 H    1.001 --    62 C    0.971
   103   1 H    0.998 --    64 C    0.975
   104   1 H    1.004 --    65 C    0.973
   105   1 H    1.004 --    70 C    0.972
   106   1 H    1.005 --    71 C    0.968
   107   1 H    1.010 --    73 C    0.942
   108   1 H    1.000 --    75 C    0.971
   109   1 H    1.004 --    76 C    0.972
   110   1 H    1.004 --    78 C    0.973
   111   1 H    1.002 --    79 C    0.974
   112   1 H    1.002 --    84 C    0.974
   113   1 H    1.004 --    85 C    0.973
   114   1 H    1.004 --    90 C    0.972
   115   1 H    1.000 --    91 C    0.971
   116   1 H    1.010 --    93 C    0.942
   117   1 H    1.005 --    95 C    0.968
   118   1 H    1.004 --    96 C    0.972
   119   1 H    1.004 --    98 C    0.973
   120   1 H    0.998 --    99 C    0.975
   121   6 C    3.926 --   122 C    2.369   125 C    1.335   124 C    0.190
   122   6 C    3.926 --   121 C    2.369   123 C    1.335   126 C    0.190
   123   6 C    3.934 --   124 C    2.449   122 C    1.335
   124   6 C    3.891 --   123 C    2.449    22 C    1.192   121 C    0.190
   125   6 C    3.934 --   126 C    2.449   121 C    1.335
   126   6 C    3.891 --   125 C    2.449    82 C    1.192   122 C    0.190
 ---------------------------------------------------------------------------

           -------------------------------------------------
          | TOTAL ENERGY             -222.590800913541 Eh   |
          | GRADIENT NORM               0.000713120762 Eh/α |
          | HOMO-LUMO GAP               1.120762650494 eV   |
           -------------------------------------------------

 * finished run on 2022/07/30 at 09:10:11.723
