   * xtb version 6.5.1 (b24c23e) compiled by 'conda@728c89f4b128' on 2022-07-12
          program call               : xtb Zn_PhNH2_C4_3.xyz --gfn 1 --opt -T 48

   ID    Z sym.   atoms
    1   30 Zn     1, 61, 129
    2    6 C      2-6, 8-12, 14-18, 20-25, 27-31, 33-38, 62-66, 68-72, 74-78,
                  80-85, 87-91, 93-98, 121-128, 130-134, 136-140, 142-146,
                  148-153, 155-159, 161-166
    3    7 N      7, 13, 19, 26, 32, 39, 67, 73, 79, 86, 92, 99, 135, 141,
                  147, 154, 160, 167
    4    1 H      40-60, 100-120, 168-187
########################################################################
[WARNING] Please study the warnings concerning your input carefully
-1- prog_main_parseArguments: Unknown option '-T' provided
########################################################################

          :  Hamiltonian                  GFN1-xTB          :
 * total energy  :  -311.1588670 Eh     change        0.9460507E-08 Eh
 * total energy  :  -312.5052442 Eh     change       -0.1346377E+01 Eh
 * total energy  :  -312.7486880 Eh     change       -0.2434438E+00 Eh
 * total energy  :  -312.8835560 Eh     change       -0.1348680E+00 Eh
 * total energy  :  -312.9516661 Eh     change       -0.6811006E-01 Eh
 * total energy  :  -312.9834570 Eh     change       -0.3179095E-01 Eh
 * total energy  :  -313.0007037 Eh     change       -0.1724661E-01 Eh
 * total energy  :  -313.0092593 Eh     change       -0.8555650E-02 Eh
 * total energy  :  -313.0151526 Eh     change       -0.5893283E-02 Eh
 * total energy  :  -313.0194648 Eh     change       -0.4312183E-02 Eh
 * total energy  :  -313.0416541 Eh     change       -0.3355273E-04 Eh
 * total energy  :  -313.0416686 Eh     change       -0.1444336E-04 Eh
 * total energy  :  -313.0417082 Eh     change       -0.3957363E-04 Eh
 * total energy  :  -313.0417252 Eh     change       -0.1703208E-04 Eh
 * total energy  :  -313.0417369 Eh     change       -0.1167749E-04 Eh
 * total energy  :  -313.0417348 Eh     change        0.2026438E-05 Eh
 * total energy  :  -313.0417483 Eh     change       -0.1340467E-04 Eh
 * total energy  :  -313.0417541 Eh     change       -0.5835645E-05 Eh
 * total energy  :  -313.0417582 Eh     change       -0.4103522E-05 Eh
   *** GEOMETRY OPTIMIZATION CONVERGED AFTER 48 ITERATIONS ***

 final structure:
================
187
 xtb: 6.5.1 (b24c23e)
Zn          31.63874275187666        0.02938397212284        0.03192544798654
C           28.23005852698655        0.09764893919471        0.08371863215492
C           28.86324654783765        1.21856521833153       -0.44032124823823
C           28.19288426593113        2.36552495824642       -0.98494277629165
C           29.15486898977703        3.23274618525179       -1.38952295297398
C           30.42581329551267        2.63080865846052       -1.08578453476449
N           30.21333000955272        1.40709591111165       -0.52063733260575
C           31.67849123588165        3.20020548521936       -1.34861228425516
C           31.69743791580314        4.55955812628444       -1.94249906576482
C           32.27977151143659        4.78228661020541       -3.19259097192440
C           32.30040279005988        6.04817728160597       -3.75107769159920
C           31.74907750265059        7.12876156042570       -3.05829156857094
N           31.73469292480683        8.39064290973276       -3.62976635538317
C           31.15987409016791        6.91401310470688       -1.80993908754214
C           31.13492337888349        5.64285525314065       -1.26342814780522
C           32.91498259718238        2.59454441618787       -1.09682251540617
C           34.19678947927868        3.20610066146424       -1.31257100821766
C           35.13998747520517        2.30293489114416       -0.94029477806063
N           33.10427037794410        1.33862771156613       -0.58360910762964
C           34.44522591201491        1.13548397912596       -0.48469087648570
C           35.07196655576005       -0.03664346950296       -0.01446535447217
C           34.41375946727621       -1.18541939001218        0.46994364151309
C           35.07528526889437       -2.38066397088606        0.90223196165376
C           34.10844207017615       -3.24901775268801        1.29623842105053
C           32.84563751107957       -2.58753308914008        1.11862500059521
N           33.06913097937800       -1.33754988967908        0.60446714641685
C           31.59379024829007       -3.14506632200947        1.40414100199223
C           31.57456357543103       -4.50890046820669        1.98727757936685
C           32.18974780940877       -4.76965536538595        3.21406082196452
C           32.17479567064289       -6.04113037490156        3.76004204079637
C           31.55299318783239       -7.08965282118474        3.07768343707819
N           31.50380746034348       -8.35567891311053        3.63787348439406
C           30.92996874183909       -6.83644996761811        1.85321104271016
C           30.94165835667340       -5.55988407589737        1.31921192094716
C           30.35760187822096       -2.52417570804907        1.18207132460080
C           29.07346257062181       -3.07493061476780        1.52504550352190
C           28.13509360187850       -2.16847384159516        1.15226730494625
C           28.83379195303885       -1.04832150828669        0.58799339542527
N           30.17705193818905       -1.29122687043913        0.62598896254220
H           27.14463336360510        0.11933783913976        0.10048089404751
H           27.12201843101986        2.47831688224716       -1.05312132085318
H           29.01989257579075        4.19149196448607       -1.86430109166968
H           32.70342130540388        3.94712096317080       -3.73976952245634
H           32.74602431408690        6.20619045409399       -4.72724538058904
H           32.44121688493912        8.54553157644292       -4.33141758352594
H           31.64124952629258        9.15076115624483       -2.97493354524465
H           30.72665269416464        7.74847372829345       -1.26914146061172
H           30.69202779309881        5.48764914549993       -0.28555489488779
H           34.35435021543467        4.20471566236978       -1.68725043301749
H           36.21253597974767        2.41422616160244       -0.96200897799668
H           36.14301472452251       -2.53283205082364        0.89424922651100
H           34.23795003662348       -4.25493156124774        1.66212065450963
H           32.66769173639909       -3.95936371306633        3.75382734034178
H           32.64731130904391       -6.22853628040099        4.71819469512448
H           32.22716470500875       -8.54881390308411        4.31214537099711
H           31.35334570133849       -9.10409128740505        2.97994422145775
H           30.44177325050540       -7.64558022536107        1.32087010072092
H           30.47201989660743       -5.37551367144443        0.35905902964794
H           28.91455366176515       -4.02827274578454        2.00326972467260
H           27.06324863283756       -2.23812862243081        1.25415231644552
Zn          58.59186396958776       -0.01889258789022        0.04451630822877
C           62.00041451890071       -0.00958099785388        0.13648143487655
C           61.36742695481352       -1.06758344764170        0.77826073487578
C           62.03793924943088       -2.15374513025802        1.43581407011600
C           61.07604763515926       -2.97427278050172        1.92837326652929
C           59.80497285836343       -2.39297159487939        1.58725538625455
N           60.01737083667972       -1.24340093659764        0.88341691767679
C           58.55262965009751       -2.93385296970916        1.90513384125751
C           58.53349628133535       -4.18147102356321        2.70794542169614
C           57.96610884389921       -5.35057537702098        2.19572748473399
C           57.94297182852620       -6.51506665402521        2.94303879245243
C           58.47625492451265       -6.52983126131102        4.23411543212504
N           58.48719565037974       -7.70233678591696        4.97194166801766
C           59.05122802287941       -5.36660317710692        4.75170893244322
C           59.07911820850657       -4.20932057204211        3.99342483047394
C           57.31613324722753       -2.39318695762766        1.53397371917905
C           56.03430111655410       -2.92014141962348        1.91192252288991
C           55.09096381625304       -2.10650693225860        1.37165214046153
N           57.12666107274797       -1.26370550669401        0.78247592227071
C           55.78555705942671       -1.07020678539006        0.66667742218593
C           55.15835325633853       -0.01637250721568       -0.02864769305865
C           55.81582526609048        1.03095940303865       -0.70527930791741
C           55.15349427311344        2.06001883969428       -1.45055918803293
C           56.12037929828127        2.86683050953808       -1.95876690214117
C           57.38407762263885        2.34531291402369       -1.51724434662088
N           57.16097305846802        1.22239008976330       -0.76492130929929
C           58.63632442427227        2.88790186926245       -1.82904913872704
C           58.65649337361597        4.12897245256136       -2.64137538959909
C           58.04673271131629        5.29695456084139       -2.17724145919972
C           58.06321029516577        6.45563859727333       -2.93369916249886
C           58.68149480755405        6.46614273759578       -4.18640593910635
N           58.73261063414364        7.63358126915002       -4.93041870909386
C           59.29934438274443        5.30431421443245       -4.65548067721682
C           59.28588035869505        4.15273034628423       -3.88832721869991
C           59.87263688429004        2.35584112836156       -1.43992891691724
C           61.15691899663884        2.94572871698911       -1.70966765406199
C           62.09526002615846        2.13346031643230       -1.16118584370992
C           61.39654717681370        1.04350703655326       -0.54057819869228
N           60.05328328885511        1.20960749101661       -0.72188213482450
H           63.08575547490916       -0.00550506089463        0.16686331889076
H           63.10888891279084       -2.26890395023967        1.49845719421046
H           61.21094961387086       -3.89975667848534        2.46515561188424
H           57.55589333999964       -5.34864228047764        1.19169045019635
H           57.50892302375593       -7.41927471686995        2.53018600146470
H           57.78828373394717       -8.37715471811109        4.70444587560140
H           58.56556428766953       -7.57439758248439        5.96837972806499
H           59.47071728577483       -5.37319078968729        5.75190632826848
H           59.51075614063237       -3.30530269611553        4.40925249796539
H           55.87676109826359       -3.79298317371638        2.52494251733493
H           54.01836607931445       -2.19029340122468        1.44710389067104
H           54.08522244625292        2.14248019836656       -1.57440928333317
H           55.99009486827295        3.73163832071709       -2.58935590390123
H           57.57201805088229        5.29941745030954       -1.20204596771692
H           57.59486022655087        7.35882074078004       -2.55767881882790
H           58.01202989366611        8.30441074950027       -4.71603931911864
H           58.88049588528462        7.49988444990809       -5.91822895305538
H           59.78498541975928        5.30765670605573       -5.62528695492396
H           59.75156975651922        3.24964467689264       -4.26785519277020
H           61.31592499242409        3.87173826543229       -2.23885343473354
H           63.16711461958040        2.25678859915706       -1.16293159040912
C           37.69934971982519       -0.07232344021653       -0.03777167411575
C           36.47690856116744       -0.05965793958938       -0.02930801227099
C           39.04841041889724       -0.08096199600873       -0.04507319113046
C           40.27100836867728       -0.07935385930996       -0.05129370682833
C           51.18104967031487       -0.00780125388174       -0.03561798230469
C           49.95860380870430       -0.01207045685702       -0.02284752056952
C           52.53045353317049       -0.00887768362919       -0.04358900008425
C           53.75287836211180       -0.01038720032790       -0.04480671949658
Zn          45.11397973407620       -0.04110839757973       -0.01717656763405
C           41.67579078455015       -0.07385194264146       -0.05550080704413
C           42.31182706506141        1.12977991304292       -0.42287155827308
C           41.62530549810732        2.34038021835086       -0.76239495066817
C           42.57511154606168        3.27724876449545       -1.01675843853693
C           43.85186098330743        2.64312867902677       -0.84619114898796
N           43.65440574505133        1.33786126841369       -0.48034085539893
C           45.09333559967056        3.27153196420067       -0.99640418769170
C           45.08642323141378        4.70174193929232       -1.39261852518690
C           44.54242187502696        5.10474133044626       -2.61408529698139
C           44.53838235896918        6.43859150088401       -2.98332659949712
C           45.07816865590117        7.40383527491252       -2.12981852841350
N           45.03086739657876        8.74506548796268       -2.47302430317531
C           45.61309200194684        7.01030826165138       -0.90076958093507
C           45.62276172542667        5.67330038159667       -0.54437843218148
C           46.34256939756445        2.67156691427848       -0.79949972110216
C           47.61062457485293        3.30901026205035       -1.01641989174574
C           48.57289362253933        2.39033250573502       -0.74274491876274
N           46.55723479332158        1.37694204335010       -0.40767425203863
C           47.90246746013204        1.18308113751250       -0.36177641450073
C           48.55363229945065       -0.01573549975001       -0.00632996317402
C           47.91761465767550       -1.22008885818555        0.35830906713608
C           48.60329232212371       -2.43453769205674        0.68504159486026
C           47.65290782759374       -3.36369782446990        0.96488170071062
C           46.37685985829229       -2.72185188347595        0.81938688465372
N           46.57499935764063       -1.42054590529452        0.44099917755639
C           45.13489465327255       -3.34045711985207        1.00672643831018
C           45.14522576933147       -4.75498772147136        1.45381720042068
C           44.57032269608636       -5.75669234851810        0.66810579487629
C           44.58437103024874       -7.07778281730675        1.07983186626905
C           45.17526233847195       -7.42655578791897        2.29676091309728
N           45.14921211719000       -8.74026550713723        2.73485527233532
C           45.74075292805060       -6.42915256389183        3.09491478697533
C           45.73050107512525       -5.11194329865969        2.67100564313100
C           43.88535850803296       -2.74098415575094        0.80919934566846
C           42.61678432228517       -3.36789758020125        1.05220739259443
C           41.65532360658957       -2.45772083840471        0.74898564836226
C           42.32658261433220       -1.26401074375315        0.32924061389620
N           43.67161381794049       -1.45819789351639        0.37886064877882
H           40.55333199983725        2.45518945449083       -0.79122365334610
H           42.42426171310990        4.31093964494382       -1.28335081322918
H           44.13591288736307        4.35920132851026       -3.28946221866543
H           44.11876988771442        6.73872508133186       -3.93777139748003
H           44.95545626906348        8.92735760038465       -3.46090836715160
H           45.70762506796317        9.32598606878174       -2.00445942348785
H           46.02203094630025        7.75692750607968       -0.22823926530849
H           46.03372346291570        5.37577363780965        0.41454858994624
H           47.74688058849569        4.32504636845988       -1.35063731239578
H           49.64320022228588        2.51152302677521       -0.79713538231106
H           49.67485047977795       -2.55681718105271        0.69020992671799
H           47.80289082297829       -4.39779595878073        1.23068106711559
H           44.12577226927502       -5.49669003864949       -0.28642790953606
H           44.14067263938046       -7.84742233103490        0.45754540042285
H           45.85629924872812       -8.97467139095169        3.41338830542068
H           45.04359336597767       -9.42780132226148        2.00583102300729
H           46.18869647570186       -6.69183801420621        4.04713021934384
H           46.16413476361503       -4.34218700469255        3.30013105886075
H           42.47886615947511       -4.37090343975579        1.42280279978131
H           40.58504024537820       -2.57503776294069        0.81086827896219

          :  Hamiltonian                  GFN1-xTB          :
         :: total energy            -313.041758196631 Eh    ::
         :: gradient norm              0.000812922501 Eh/a0 ::
         :: HOMO-LUMO gap              0.881534521157 eV    ::
         :: SCC energy              -318.132325714620 Eh    ::
         :: repulsion energy           5.256627235580 Eh    ::

    * Orbital Energies and Occupations

         #    Occupation            Energy/Eh            Energy/eV
      -------------------------------------------------------------
         1        2.0000           -0.7761836             -21.1210
       ...           ...                  ...                  ...
       275        2.0000           -0.4063629             -11.0577
       276        2.0000           -0.3972480             -10.8097
       277        2.0000           -0.3952857             -10.7563
       278        2.0000           -0.3946942             -10.7402
       279        2.0000           -0.3936254             -10.7111
       280        2.0000           -0.3935370             -10.7087
       281        2.0000           -0.3930706             -10.6960
       282        2.0000           -0.3843805             -10.4595
       283        2.0000           -0.3841222             -10.4525
       284        2.0000           -0.3836584             -10.4399
       285        2.0000           -0.3776287             -10.2758
       286        2.0000           -0.3709202             -10.0933
       287        2.0000           -0.3628017              -9.8723 (HOMO)
       288                         -0.3304059              -8.9908 (LUMO)
       289                         -0.3203516              -8.7172
       290                         -0.3159528              -8.5975
       291                         -0.3159210              -8.5966
       292                         -0.3154541              -8.5839
       293                         -0.3119573              -8.4888
       294                         -0.2897138              -7.8835
       295                         -0.2818291              -7.6690
       296                         -0.2781865              -7.5698
       297                         -0.2541093              -6.9147
       298                         -0.2541075              -6.9146
       ...                                ...                  ...
       624                          1.5283913              41.5896
      -------------------------------------------------------------
                  HL-Gap            0.0323958 Eh            0.8815 eV

Wiberg/Mayer (AO) data.
largest (>0.10) Wiberg bond orders for each atom

     #   Z sym  total        # sym  WBO       # sym  WBO       # sym  WBO
 ---------------------------------------------------------------------------
     1  30 Zn   2.000 --    39 N    0.460     7 N    0.460    19 N    0.457
                            26 N    0.457
     2   6 C    3.924 --     3 C    1.356    38 C    1.356    40 H    0.972
     3   6 C    3.923 --     2 C    1.356     7 N    1.233     4 C    1.173
     4   6 C    3.959 --     5 C    1.656     3 C    1.173    41 H    0.976
     5   6 C    3.963 --     4 C    1.656     6 C    1.175    42 H    0.973
     6   6 C    3.917 --     8 C    1.312     7 N    1.244     5 C    1.175
     7   7 N    3.293 --     6 C    1.244     3 C    1.233     1 Zn   0.460
     8   6 C    3.933 --    16 C    1.322     6 C    1.312     9 C    1.031
     9   6 C    3.988 --    15 C    1.382    10 C    1.382     8 C    1.031
    10   6 C    3.988 --    11 C    1.467     9 C    1.382    43 H    0.973
                            14 C    0.100
    11   6 C    3.990 --    10 C    1.467    12 C    1.355    44 H    0.972
                            15 C    0.100
    12   6 C    3.952 --    14 C    1.356    11 C    1.355    13 N    1.112
    13   7 N    3.131 --    12 C    1.112    46 H    0.934    45 H    0.934
    14   6 C    3.990 --    15 C    1.467    12 C    1.356    47 H    0.972
                            10 C    0.100
    15   6 C    3.988 --    14 C    1.467     9 C    1.382    48 H    0.973
                            11 C    0.100
    16   6 C    3.912 --     8 C    1.322    19 N    1.224    17 C    1.181
    17   6 C    3.960 --    18 C    1.643    16 C    1.181    49 H    0.973
    18   6 C    3.961 --    17 C    1.643    20 C    1.189    50 H    0.974
    19   7 N    3.297 --    20 C    1.263    16 C    1.224     1 Zn   0.457
    20   6 C    3.903 --    19 N    1.263    21 C    1.252    18 C    1.189
    21   6 C    3.935 --    22 C    1.252    20 C    1.252   122 C    1.193
    22   6 C    3.904 --    26 N    1.263    21 C    1.252    23 C    1.189
    23   6 C    3.961 --    24 C    1.643    22 C    1.189    51 H    0.974
    24   6 C    3.960 --    23 C    1.643    25 C    1.182    52 H    0.973
    25   6 C    3.912 --    27 C    1.322    26 N    1.225    24 C    1.182
    26   7 N    3.297 --    22 C    1.263    25 C    1.225     1 Zn   0.457
    27   6 C    3.933 --    25 C    1.322    35 C    1.311    28 C    1.032
    28   6 C    3.988 --    34 C    1.382    29 C    1.382    27 C    1.032
    29   6 C    3.988 --    30 C    1.467    28 C    1.382    53 H    0.973
                            33 C    0.100
    30   6 C    3.990 --    29 C    1.467    31 C    1.355    54 H    0.972
                            34 C    0.100
    31   6 C    3.952 --    33 C    1.355    30 C    1.355    32 N    1.112
    32   7 N    3.131 --    31 C    1.112    56 H    0.934    55 H    0.934
    33   6 C    3.990 --    34 C    1.467    31 C    1.355    57 H    0.972
                            29 C    0.100
    34   6 C    3.988 --    33 C    1.467    28 C    1.382    58 H    0.973
                            30 C    0.100
    35   6 C    3.916 --    27 C    1.311    39 N    1.244    36 C    1.175
    36   6 C    3.963 --    37 C    1.655    35 C    1.175    59 H    0.973
    37   6 C    3.959 --    36 C    1.655    38 C    1.173    60 H    0.976
    38   6 C    3.923 --     2 C    1.356    39 N    1.233    37 C    1.173
    39   7 N    3.293 --    35 C    1.244    38 C    1.233     1 Zn   0.460
    40   1 H    1.002 --     2 C    0.972
    41   1 H    0.998 --     4 C    0.976
    42   1 H    1.006 --     5 C    0.973
    43   1 H    1.005 --    10 C    0.973
    44   1 H    0.999 --    11 C    0.972
    45   1 H    0.961 --    13 N    0.934
    46   1 H    0.961 --    13 N    0.934
    47   1 H    0.999 --    14 C    0.972
    48   1 H    1.005 --    15 C    0.973
    49   1 H    1.006 --    17 C    0.973
    50   1 H    1.003 --    18 C    0.974
    51   1 H    1.003 --    23 C    0.974
    52   1 H    1.006 --    24 C    0.973
    53   1 H    1.005 --    29 C    0.973
    54   1 H    0.999 --    30 C    0.972
    55   1 H    0.961 --    32 N    0.934
    56   1 H    0.961 --    32 N    0.934
    57   1 H    0.999 --    33 C    0.972
    58   1 H    1.005 --    34 C    0.973
    59   1 H    1.006 --    36 C    0.973
    60   1 H    0.998 --    37 C    0.976
    61  30 Zn   2.001 --    99 N    0.460    67 N    0.460    79 N    0.457
                            86 N    0.457
    62   6 C    3.925 --    63 C    1.356    98 C    1.356   100 H    0.972
    63   6 C    3.923 --    62 C    1.356    67 N    1.233    64 C    1.173
    64   6 C    3.960 --    65 C    1.656    63 C    1.173   101 H    0.976
    65   6 C    3.963 --    64 C    1.656    66 C    1.174   102 H    0.973
    66   6 C    3.917 --    68 C    1.312    67 N    1.244    65 C    1.174
    67   7 N    3.293 --    66 C    1.244    63 C    1.233    61 Zn   0.460
    68   6 C    3.933 --    76 C    1.322    66 C    1.312    69 C    1.031
    69   6 C    3.988 --    75 C    1.383    70 C    1.382    68 C    1.031
    70   6 C    3.988 --    71 C    1.467    69 C    1.382   103 H    0.973
                            74 C    0.100
    71   6 C    3.990 --    70 C    1.467    72 C    1.356   104 H    0.972
                            75 C    0.100
    72   6 C    3.952 --    74 C    1.356    71 C    1.356    73 N    1.112
    73   7 N    3.131 --    72 C    1.112   105 H    0.934   106 H    0.934
    74   6 C    3.990 --    75 C    1.467    72 C    1.356   107 H    0.972
                            70 C    0.100
    75   6 C    3.988 --    74 C    1.467    69 C    1.383   108 H    0.973
                            71 C    0.100
    76   6 C    3.912 --    68 C    1.322    79 N    1.225    77 C    1.181
    77   6 C    3.960 --    78 C    1.643    76 C    1.181   109 H    0.973
    78   6 C    3.961 --    77 C    1.643    80 C    1.188   110 H    0.974
    79   7 N    3.297 --    80 C    1.263    76 C    1.225    61 Zn   0.457
    80   6 C    3.904 --    79 N    1.263    81 C    1.253    78 C    1.188
    81   6 C    3.936 --    82 C    1.253    80 C    1.253   128 C    1.191
    82   6 C    3.904 --    86 N    1.263    81 C    1.253    83 C    1.189
    83   6 C    3.961 --    84 C    1.643    82 C    1.189   111 H    0.974
    84   6 C    3.960 --    83 C    1.643    85 C    1.182   112 H    0.973
    85   6 C    3.912 --    87 C    1.322    86 N    1.225    84 C    1.182
    86   7 N    3.297 --    82 C    1.263    85 C    1.225    61 Zn   0.457
    87   6 C    3.933 --    85 C    1.322    95 C    1.312    88 C    1.032
    88   6 C    3.988 --    89 C    1.382    94 C    1.382    87 C    1.032
    89   6 C    3.988 --    90 C    1.467    88 C    1.382   113 H    0.973
                            93 C    0.100
    90   6 C    3.990 --    89 C    1.467    91 C    1.355   114 H    0.972
                            94 C    0.100
    91   6 C    3.952 --    90 C    1.355    93 C    1.355    92 N    1.112
    92   7 N    3.131 --    91 C    1.112   116 H    0.934   115 H    0.934
    93   6 C    3.990 --    94 C    1.467    91 C    1.355   117 H    0.972
                            89 C    0.100
    94   6 C    3.987 --    93 C    1.467    88 C    1.382   118 H    0.973
                            90 C    0.100
    95   6 C    3.917 --    87 C    1.312    99 N    1.244    96 C    1.175
    96   6 C    3.963 --    97 C    1.655    95 C    1.175   119 H    0.973
    97   6 C    3.959 --    96 C    1.655    98 C    1.173   120 H    0.976
    98   6 C    3.923 --    62 C    1.356    99 N    1.233    97 C    1.173
    99   7 N    3.293 --    95 C    1.244    98 C    1.233    61 Zn   0.460
   100   1 H    1.002 --    62 C    0.972
   101   1 H    0.998 --    64 C    0.976
   102   1 H    1.006 --    65 C    0.973
   103   1 H    1.005 --    70 C    0.973
   104   1 H    0.999 --    71 C    0.972
   105   1 H    0.961 --    73 N    0.934
   106   1 H    0.961 --    73 N    0.934
   107   1 H    0.999 --    74 C    0.972
   108   1 H    1.005 --    75 C    0.973
   109   1 H    1.006 --    77 C    0.973
   110   1 H    1.003 --    78 C    0.974
   111   1 H    1.003 --    83 C    0.974
   112   1 H    1.006 --    84 C    0.973
   113   1 H    1.005 --    89 C    0.973
   114   1 H    0.999 --    90 C    0.972
   115   1 H    0.961 --    92 N    0.934
   116   1 H    0.961 --    92 N    0.934
   117   1 H    0.999 --    93 C    0.972
   118   1 H    1.005 --    94 C    0.973
   119   1 H    1.006 --    96 C    0.973
   120   1 H    0.998 --    97 C    0.976
   121   6 C    3.933 --   122 C    2.470   123 C    1.312
   122   6 C    3.923 --   121 C    2.470    21 C    1.193   124 C    0.199
   123   6 C    3.931 --   124 C    2.469   121 C    1.312
   124   6 C    3.925 --   123 C    2.469   130 C    1.194   122 C    0.199
   125   6 C    3.930 --   126 C    2.471   127 C    1.310
   126   6 C    3.924 --   125 C    2.471   149 C    1.193   128 C    0.198
   127   6 C    3.933 --   128 C    2.472   125 C    1.310
   128   6 C    3.923 --   127 C    2.472    81 C    1.191   126 C    0.198
   129  30 Zn   1.997 --   167 N    0.457   135 N    0.457   147 N    0.457
                           154 N    0.457
   130   6 C    3.923 --   166 C    1.250   131 C    1.250   124 C    1.194
   131   6 C    3.904 --   135 N    1.263   130 C    1.250   132 C    1.190
   132   6 C    3.960 --   133 C    1.640   131 C    1.190   168 H    0.974
   133   6 C    3.960 --   132 C    1.640   134 C    1.184   169 H    0.973
   134   6 C    3.910 --   136 C    1.319   135 N    1.224   133 C    1.184
   135   7 N    3.291 --   131 C    1.263   134 C    1.224   129 Zn   0.457
   136   6 C    3.928 --   134 C    1.319   144 C    1.318   137 C    1.030
   137   6 C    3.988 --   138 C    1.383   143 C    1.382   136 C    1.030
   138   6 C    3.988 --   139 C    1.466   137 C    1.383   170 H    0.973
                           142 C    0.100
   139   6 C    3.990 --   138 C    1.466   140 C    1.356   171 H    0.972
                           143 C    0.100
   140   6 C    3.952 --   139 C    1.356   142 C    1.356   141 N    1.112
   141   7 N    3.131 --   140 C    1.112   172 H    0.934   173 H    0.934
   142   6 C    3.990 --   143 C    1.467   140 C    1.356   174 H    0.972
                           138 C    0.100
   143   6 C    3.988 --   142 C    1.467   137 C    1.382   175 H    0.973
                           139 C    0.100
   144   6 C    3.910 --   136 C    1.318   147 N    1.225   145 C    1.184
   145   6 C    3.960 --   146 C    1.640   144 C    1.184   176 H    0.974
   146   6 C    3.959 --   145 C    1.640   148 C    1.190   177 H    0.974
   147   7 N    3.291 --   148 C    1.263   144 C    1.225   129 Zn   0.457
   148   6 C    3.904 --   147 N    1.263   149 C    1.251   146 C    1.190
   149   6 C    3.923 --   148 C    1.251   150 C    1.251   126 C    1.193
   150   6 C    3.904 --   154 N    1.263   149 C    1.251   151 C    1.191
   151   6 C    3.959 --   152 C    1.639   150 C    1.191   178 H    0.974
   152   6 C    3.961 --   151 C    1.639   153 C    1.184   179 H    0.973
   153   6 C    3.910 --   155 C    1.317   154 N    1.225   152 C    1.184
   154   7 N    3.291 --   150 C    1.263   153 C    1.225   129 Zn   0.457
   155   6 C    3.928 --   163 C    1.318   153 C    1.317   156 C    1.032
   156   6 C    3.988 --   157 C    1.382   162 C    1.382   155 C    1.032
   157   6 C    3.988 --   158 C    1.467   156 C    1.382   180 H    0.973
                           161 C    0.100
   158   6 C    3.990 --   157 C    1.467   159 C    1.355   181 H    0.972
                           162 C    0.100
   159   6 C    3.952 --   158 C    1.355   161 C    1.355   160 N    1.113
   160   7 N    3.131 --   159 C    1.113   183 H    0.934   182 H    0.934
   161   6 C    3.990 --   162 C    1.467   159 C    1.355   184 H    0.972
                           157 C    0.100
   162   6 C    3.988 --   161 C    1.467   156 C    1.382   185 H    0.973
                           158 C    0.100
   163   6 C    3.910 --   155 C    1.318   167 N    1.224   164 C    1.184
   164   6 C    3.960 --   165 C    1.640   163 C    1.184   186 H    0.973
   165   6 C    3.959 --   164 C    1.640   166 C    1.191   187 H    0.974
   166   6 C    3.904 --   167 N    1.263   130 C    1.250   165 C    1.191
   167   7 N    3.291 --   166 C    1.263   163 C    1.224   129 Zn   0.457
   168   1 H    1.003 --   132 C    0.974
   169   1 H    1.006 --   133 C    0.973
   170   1 H    1.005 --   138 C    0.973
   171   1 H    0.999 --   139 C    0.972
   172   1 H    0.961 --   141 N    0.934
   173   1 H    0.961 --   141 N    0.934
   174   1 H    0.999 --   142 C    0.972
   175   1 H    1.005 --   143 C    0.973
   176   1 H    1.006 --   145 C    0.974
   177   1 H    1.003 --   146 C    0.974
   178   1 H    1.003 --   151 C    0.974
   179   1 H    1.006 --   152 C    0.973
   180   1 H    1.005 --   157 C    0.973
   181   1 H    0.999 --   158 C    0.972
   182   1 H    0.961 --   160 N    0.934
   183   1 H    0.961 --   160 N    0.934
   184   1 H    0.999 --   161 C    0.972
   185   1 H    1.005 --   162 C    0.973
   186   1 H    1.006 --   164 C    0.973
   187   1 H    1.003 --   165 C    0.974
 ---------------------------------------------------------------------------

           -------------------------------------------------
          | TOTAL ENERGY             -313.041758196631 Eh   |
          | GRADIENT NORM               0.000812922501 Eh/α |
          | HOMO-LUMO GAP               0.881534521157 eV   |
           -------------------------------------------------

 * finished run on 2022/07/30 at 09:39:11.266
