   * xtb version 6.5.1 (b24c23e) compiled by 'conda@728c89f4b128' on 2022-07-12
          program call               : xtb Co_Ph3OH_C6_2.xyz --gfn 1 --opt -T 48

   ID    Z sym.   atoms
    1   27 Co     1, 63
    2    6 C      2-6, 8-11, 13, 15, 17-20, 22-27, 29-32, 34, 36, 38-42,
                  64-68, 70-73, 75, 77, 79-82, 84-89, 91-94, 96, 98, 100-104,
                  125-130
    3    7 N      7, 21, 28, 43, 69, 83, 90, 105
    4    8 O      12, 14, 16, 33, 35, 37, 74, 76, 78, 95, 97, 99
    5    1 H      44-62, 106-124
########################################################################
[WARNING] Please study the warnings concerning your input carefully
-1- prog_main_parseArguments: Unknown option '-T' provided
########################################################################

          :  Hamiltonian                  GFN1-xTB          :
 * total energy  :  -257.1083039 Eh     change       -0.7736389E-10 Eh
 * total energy  :  -257.2177368 Eh     change       -0.1094330E+00 Eh
 * total energy  :  -257.2812949 Eh     change       -0.6355808E-01 Eh
 * total energy  :  -257.3035875 Eh     change       -0.2229257E-01 Eh
 * total energy  :  -257.3157371 Eh     change       -0.1214961E-01 Eh
 * total energy  :  -257.3224802 Eh     change       -0.6743113E-02 Eh
 * total energy  :  -257.3262113 Eh     change       -0.3731066E-02 Eh
 * total energy  :  -257.3278856 Eh     change       -0.1674381E-02 Eh
 * total energy  :  -257.3292368 Eh     change       -0.1351126E-02 Eh
 * total energy  :  -257.3298651 Eh     change       -0.6283614E-03 Eh
 * total energy  :  -257.3345495 Eh     change       -0.2174102E-04 Eh
 * total energy  :  -257.3345740 Eh     change       -0.2447866E-04 Eh
 * total energy  :  -257.3346003 Eh     change       -0.2633458E-04 Eh
 * total energy  :  -257.3346025 Eh     change       -0.2166954E-05 Eh
 * total energy  :  -257.3346002 Eh     change        0.2289606E-05 Eh
 * total energy  :  -257.3346139 Eh     change       -0.1366474E-04 Eh
 * total energy  :  -257.3345954 Eh     change        0.1842171E-04 Eh
 * total energy  :  -257.3346191 Eh     change       -0.2369413E-04 Eh
 * total energy  :  -257.3346239 Eh     change       -0.4732326E-05 Eh
   *** GEOMETRY OPTIMIZATION CONVERGED AFTER 99 ITERATIONS ***

 final structure:
================
130
 xtb: 6.5.1 (b24c23e)
Co          14.73411520653333        0.04538502176313        0.05232291067986
C           11.35850880502969        0.07627867842016        0.14855617070309
C           12.01672132761303        1.25855659209850       -0.11310300400328
C           11.35031959668346        2.49970977999170       -0.36431527409438
C           12.31107218606085        3.45112811353259       -0.42053994553278
C           13.56405227102053        2.79008036459763       -0.19798006023388
N           13.37538327129109        1.43897823603674       -0.05214347235724
C           14.75978598017496        3.45734819736077        0.03153075162975
C           14.76698753576866        4.94131362530157        0.00418404599922
C           14.51528096556110        5.61847946846676       -1.18835967734820
C           14.52038629843655        7.00848615121215       -1.21357962257007
O           14.28365435380923        7.67801474534882       -2.36768274949574
C           14.76977421218371        7.72418153016343       -0.04140732785418
O           14.76347651781941        9.09330462133923       -0.09560542609288
C           15.01672180826557        7.04631777637493        1.14965294577602
O           15.24778881347803        7.81671613134642        2.25874728954378
C           15.01998839361984        5.65701366731091        1.17684554933501
C           15.93850525428847        2.78194970428852        0.30781214212398
C           17.18890909869918        3.42964577199371        0.56800810038141
C           18.13048328613526        2.45762824330381        0.61990299875589
N           16.11136464776710        1.41770066146785        0.23282979646747
C           17.45619281049670        1.22195661832664        0.37660112877816
C           18.12884765100432        0.01598666096201        0.16380124077459
C           17.44794670924786       -1.17196022240446       -0.11539157526927
C           18.10682996917517       -2.39867496544059       -0.43318667123793
C           17.14314027560509       -3.34740641392026       -0.51227431108555
C           15.90024602752938       -2.69867841782830       -0.22079704431242
N           16.09585999324186       -1.34786465394898       -0.03662901836349
C           14.70028437884281       -3.36724554168173       -0.03423916037470
C           14.67596223561827       -4.84696803418127       -0.10973535134164
C           15.45457967906565       -5.60911643152369        0.76138477989157
C           15.42287243365648       -6.99693420226401        0.69166642288997
O           16.16758086332210       -7.74709180379752        1.53959532136119
C           14.61800392888338       -7.62735733292202       -0.25862510849845
O           14.61020387085418       -8.99633233201330       -0.30692280660447
C           13.84414646235650       -6.86599542258670       -1.13090533644897
O           13.08327279229764       -7.55529450092492       -2.03809254418782
C           13.86522743044768       -5.47909636660945       -1.05665201055842
C           13.51773724623977       -2.68934081192652        0.23421946510770
C           12.27126739031567       -3.33407530058882        0.52656966044789
C           11.33258204955788       -2.36065237049373        0.59185740710559
C           12.00723616849698       -1.12399576689278        0.34073794393866
N           13.35549924777421       -1.32890828407256        0.18329990213893
H           10.27567425144263        0.08829206100593        0.18922171816602
H           10.28258732466206        2.60944297493291       -0.46862022174997
H           12.19374502187821        4.51153814756384       -0.57350813522545
H           14.33217840448929        5.07254860894062       -2.10474853634751
H           14.33135745985337        8.63064862071991       -2.18338099142107
H           14.95303216252033        9.42850994411065        0.79518631867923
H           15.40891965615661        7.26367930163396        3.03443138845069
H           15.19868571993459        5.13555525623356        2.10979319464137
H           17.32213565550549        4.49383373191397        0.67445373910697
H           19.19179981753564        2.55402438592440        0.78282815830238
H           19.17049606076340       -2.50334486286051       -0.57424935601749
H           17.25325012743149       -4.39446492188595       -0.74239424484257
H           16.07110181110625       -5.13119074479033        1.51154727716865
H           16.01057948712052       -8.68409351240463        1.33693384397648
H           14.00492251175772       -9.26713176662744       -1.01541142648278
H           12.58590782919345       -6.94806351385766       -2.60129128327766
H           13.26945109422254       -4.89248169718156       -1.74599915154546
H           12.14525677648923       -4.39569885099405        0.66494350683300
H           10.27460763671562       -2.45229738234120        0.77945850713625
Co          30.69120709727563       -0.05136480296198        0.04377229937663
C           34.06682398563024       -0.09346984121391        0.13120675211624
C           33.40780432360207       -1.23793999029311       -0.26309450079572
C           34.07320278207871       -2.44247440085519       -0.65562650197266
C           33.11212903828699       -3.38163586884753       -0.81617298482635
C           31.85993216070295       -2.75022981286919       -0.51655865521621
N           32.04923448498237       -1.42420349617418       -0.21973049996488
C           30.66469446512951       -3.43916170724837       -0.36010683208956
C           30.65701466891231       -4.91073308484301       -0.55353301934255
C           30.90427176755881       -5.45001071421550       -1.81531599363905
C           30.89859994034504       -6.82845108521008       -1.99605398496166
O           31.13094393957146       -7.36448645129113       -3.21873763170766
C           30.65318791780529       -7.67094237378289       -0.91052456129320
O           30.65886548904549       -9.02538507639577       -1.11775932637857
C           30.41068555831545       -7.13077380623159        0.34984185764718
O           30.18337241445451       -8.02056362908580        1.36649983988492
C           30.40788279422278       -5.75325346356484        0.53247361234972
C           29.48666896993304       -2.79892706067314       -0.00772256108546
C           28.23633250048885       -3.47146388830885        0.17953377406904
C           27.29479809308694       -2.51116301315159        0.33899989135963
N           29.31389395747662       -1.43478441647500        0.06954312800201
C           27.96908194186635       -1.25613556041385        0.23406304711267
C           27.29660950988962       -0.03384455361049        0.15656161963677
C           27.97794122622587        1.17780472106179        0.01338517075906
C           27.31979153361258        2.43294374004037       -0.16370775838927
C           28.28376916892770        3.38419759258326       -0.13273372904590
C           29.52609170351612        2.70610379823096        0.08511125742043
N           29.32996632326632        1.34320632631386        0.11366334433794
C           30.72601123583493        3.34852025346951        0.34832096615127
C           30.75063205746676        4.82712062139328        0.44289397676616
C           29.97106230886309        5.48450838702961        1.39473391117086
C           30.00287820096725        6.87115805511957        1.48459747318204
O           29.25711653791671        7.51929893550720        2.41200901686822
C           30.80871526309160        7.60622855861490        0.61366551744254
O           30.81661017047524        8.97171361134986        0.72260136487130
C           31.58343782729771        6.94976764653280       -0.33932289503389
O           32.34541660395551        7.73841978923783       -1.16061318714484
C           31.56232232265342        5.56349628239572       -0.42449093305753
C           31.90826106747816        2.64395892708115        0.53763332253869
C           33.15500153007665        3.25042023404807        0.90187933971867
C           34.09363373248876        2.27597179748915        0.85318274507825
C           33.41860224195970        1.07660522344095        0.46164249766870
N           32.07024452789176        1.29847339976759        0.32985614022279
H           35.14973044942009       -0.10996636765682        0.16786741494415
H           35.14061016250412       -2.53954714300849       -0.77475637158295
H           33.22879416400875       -4.41792438351088       -1.08842767785851
H           31.08431981043728       -4.80485076318301       -2.66542449651055
H           31.08354107950619       -8.33177050570997       -3.14213093826609
H           30.47243785178751       -9.45827141709189       -0.26943406492914
H           30.02533735065976       -7.55788772835577        2.19983960922739
H           30.23250039131601       -5.33954244966938        1.51854188698268
H           28.10316623884619       -4.54090468007511        0.16746730156576
H           26.23350369556777       -2.62498521639285        0.49044552718587
H           26.25637750771359        2.55337540196553       -0.29351504832417
H           28.17420029356122        4.45069900627466       -0.24220471220882
H           29.35336282925870        4.92380096094077        2.08425747717360
H           29.41430929221344        8.47333216423738        2.31823280357428
H           31.42251135863484        9.32182763047975        0.05038598347122
H           32.84322635714060        7.19972608692114       -1.78935777628816
H           32.15896171506261        5.05966882790784       -1.17580605116700
H           33.28124052566579        4.28888249662721        1.16217913844441
H           35.15174574045890        2.34525631511721        1.04939908041888
C           23.32740877820551       -0.01562901342959        0.22600730026243
C           22.09828331029030       -0.00839651149323        0.22829693449652
C           20.75517306700521       -0.00246773145191        0.21929476543162
C           19.53076287420199        0.00329712939832        0.19837825757647
C           24.67047592800806       -0.01930019929735        0.21328634222213
C           25.89465459104077       -0.02539667723014        0.19008322295647

          :  Hamiltonian                  GFN1-xTB          :
         :: total energy            -257.334623858718 Eh    ::
         :: gradient norm              0.000722655359 Eh/a0 ::
         :: HOMO-LUMO gap              0.007070317140 eV    ::
         :: SCC energy              -260.815180629019 Eh    ::
         :: repulsion energy           3.593837294921 Eh    ::

    * Orbital Energies and Occupations

         #    Occupation            Energy/Eh            Energy/eV
      -------------------------------------------------------------
         1        2.0000           -0.8133690             -22.1329
       ...           ...                  ...                  ...
       212        2.0000           -0.4115159             -11.1979
       213        2.0000           -0.4113225             -11.1927
       214        2.0000           -0.3971067             -10.8058
       215        2.0000           -0.3971028             -10.8057
       216        2.0000           -0.3957311             -10.7684
       217        2.0000           -0.3952704             -10.7559
       218        2.0000           -0.3942043             -10.7268
       219        1.9998           -0.3919823             -10.6664
       220        1.9998           -0.3919748             -10.6662
       221        1.9998           -0.3919149             -10.6645
       222        1.9998           -0.3919098             -10.6644
       223        1.8609           -0.3855196             -10.4905
       224        1.1379           -0.3833195             -10.4307 (HOMO)
       225        1.0020           -0.3830596             -10.4236 (LUMO)
       226                         -0.3391965              -9.2300
       227                         -0.3277759              -8.9192
       228                         -0.3277544              -8.9187
       229                         -0.3274872              -8.9114
       230                         -0.3003646              -8.1733
       231                         -0.2945427              -8.0149
       232                         -0.2944931              -8.0136
       233                         -0.2932080              -7.9786
       234                         -0.2868341              -7.8052
       235                         -0.2651200              -7.2143
       ...                                ...                  ...
       454                          1.5759635              42.8841
      -------------------------------------------------------------
                  HL-Gap            0.0002598 Eh            0.0071 eV

Wiberg/Mayer (AO) data.
largest (>0.10) Wiberg bond orders for each atom

     #   Z sym  total        # sym  WBO       # sym  WBO       # sym  WBO
 ---------------------------------------------------------------------------
     1  27 Co   3.034 --    43 N    0.637     7 N    0.636    21 N    0.633
                            28 N    0.631
     2   6 C    3.928 --    42 C    1.366     3 C    1.363    44 H    0.970
     3   6 C    3.925 --     2 C    1.363     7 N    1.203     4 C    1.174
     4   6 C    3.960 --     5 C    1.650     3 C    1.174    45 H    0.975
     5   6 C    3.963 --     4 C    1.650     6 C    1.176    46 H    0.973
     6   6 C    3.919 --     8 C    1.321     7 N    1.212     5 C    1.176
     7   7 N    3.346 --     6 C    1.212     3 C    1.203     1 Co   0.636
     8   6 C    3.931 --    18 C    1.335     6 C    1.321     9 C    1.021
     9   6 C    3.988 --    10 C    1.401    17 C    1.388     8 C    1.021
    10   6 C    3.977 --     9 C    1.401    11 C    1.379    47 H    0.970
    11   6 C    3.917 --    10 C    1.379    13 C    1.324    12 O    1.053
    12   8 O    2.049 --    11 C    1.053    48 H    0.847
    13   6 C    3.904 --    15 C    1.341    11 C    1.324    14 O    1.021
    14   8 O    2.021 --    13 C    1.021    49 H    0.846
    15   6 C    3.905 --    17 C    1.383    13 C    1.341    16 O    1.014
    16   8 O    2.025 --    15 C    1.014    50 H    0.860
    17   6 C    3.973 --     9 C    1.388    15 C    1.383    51 H    0.970
    18   6 C    3.916 --     8 C    1.335    21 N    1.193    19 C    1.182
    19   6 C    3.959 --    20 C    1.638    18 C    1.182    52 H    0.973
    20   6 C    3.961 --    19 C    1.638    22 C    1.189    53 H    0.973
    21   7 N    3.346 --    22 C    1.232    18 C    1.193     1 Co   0.633
    22   6 C    3.903 --    23 C    1.259    21 N    1.232    20 C    1.189
    23   6 C    3.932 --    22 C    1.259    24 C    1.256   128 C    1.194
    24   6 C    3.903 --    23 C    1.256    28 N    1.234    25 C    1.191
    25   6 C    3.961 --    26 C    1.636    24 C    1.191    54 H    0.973
    26   6 C    3.958 --    25 C    1.636    27 C    1.181    55 H    0.973
    27   6 C    3.916 --    29 C    1.334    28 N    1.192    26 C    1.181
    28   7 N    3.347 --    24 C    1.234    27 C    1.192     1 Co   0.631
    29   6 C    3.931 --    27 C    1.334    39 C    1.315    30 C    1.030
    30   6 C    3.988 --    31 C    1.397    38 C    1.384    29 C    1.030
    31   6 C    3.977 --    30 C    1.397    32 C    1.380    56 H    0.970
    32   6 C    3.918 --    31 C    1.380    34 C    1.324    33 O    1.053
    33   8 O    2.049 --    32 C    1.053    57 H    0.847
    34   6 C    3.903 --    36 C    1.339    32 C    1.324    35 O    1.022
    35   8 O    2.021 --    34 C    1.022    58 H    0.846
    36   6 C    3.905 --    38 C    1.385    34 C    1.339    37 O    1.014
    37   8 O    2.025 --    36 C    1.014    59 H    0.861
    38   6 C    3.973 --    36 C    1.385    30 C    1.384    60 H    0.969
    39   6 C    3.919 --    29 C    1.315    43 N    1.216    40 C    1.178
    40   6 C    3.963 --    41 C    1.647    39 C    1.178    61 H    0.973
    41   6 C    3.959 --    40 C    1.647    42 C    1.175    62 H    0.975
    42   6 C    3.925 --     2 C    1.366    43 N    1.200    41 C    1.175
    43   7 N    3.344 --    39 C    1.216    42 C    1.200     1 Co   0.637
    44   1 H    1.000 --     2 C    0.970
    45   1 H    0.997 --     4 C    0.975
    46   1 H    1.005 --     5 C    0.973
    47   1 H    0.999 --    10 C    0.970
    48   1 H    0.877 --    12 O    0.847
    49   1 H    0.876 --    14 O    0.846
    50   1 H    0.881 --    16 O    0.860
    51   1 H    1.000 --    17 C    0.970
    52   1 H    1.005 --    19 C    0.973
    53   1 H    1.002 --    20 C    0.973
    54   1 H    1.001 --    25 C    0.973
    55   1 H    1.005 --    26 C    0.973
    56   1 H    1.000 --    31 C    0.970
    57   1 H    0.877 --    33 O    0.847
    58   1 H    0.876 --    35 O    0.846
    59   1 H    0.881 --    37 O    0.861
    60   1 H    1.001 --    38 C    0.969
    61   1 H    1.005 --    40 C    0.973
    62   1 H    0.998 --    41 C    0.975
    63  27 Co   3.035 --   105 N    0.637    69 N    0.636    83 N    0.633
                            90 N    0.631
    64   6 C    3.928 --   104 C    1.366    65 C    1.363   106 H    0.970
    65   6 C    3.925 --    64 C    1.363    69 N    1.203    66 C    1.174
    66   6 C    3.960 --    67 C    1.650    65 C    1.174   107 H    0.975
    67   6 C    3.963 --    66 C    1.650    68 C    1.176   108 H    0.973
    68   6 C    3.919 --    70 C    1.321    69 N    1.212    67 C    1.176
    69   7 N    3.346 --    68 C    1.212    65 C    1.203    63 Co   0.636
    70   6 C    3.931 --    80 C    1.335    68 C    1.321    71 C    1.021
    71   6 C    3.988 --    72 C    1.401    79 C    1.388    70 C    1.021
    72   6 C    3.977 --    71 C    1.401    73 C    1.379   109 H    0.970
    73   6 C    3.917 --    72 C    1.379    75 C    1.324    74 O    1.053
    74   8 O    2.049 --    73 C    1.053   110 H    0.847
    75   6 C    3.904 --    77 C    1.341    73 C    1.324    76 O    1.021
    76   8 O    2.021 --    75 C    1.021   111 H    0.846
    77   6 C    3.905 --    79 C    1.383    75 C    1.341    78 O    1.014
    78   8 O    2.025 --    77 C    1.014   112 H    0.860
    79   6 C    3.973 --    71 C    1.388    77 C    1.383   113 H    0.970
    80   6 C    3.916 --    70 C    1.335    83 N    1.193    81 C    1.182
    81   6 C    3.958 --    82 C    1.638    80 C    1.182   114 H    0.973
    82   6 C    3.961 --    81 C    1.638    84 C    1.189   115 H    0.973
    83   7 N    3.346 --    84 C    1.233    80 C    1.193    63 Co   0.633
    84   6 C    3.903 --    85 C    1.258    83 N    1.233    82 C    1.189
    85   6 C    3.932 --    84 C    1.258    86 C    1.256   130 C    1.194
    86   6 C    3.903 --    85 C    1.256    90 N    1.234    87 C    1.191
    87   6 C    3.961 --    88 C    1.636    86 C    1.191   116 H    0.973
    88   6 C    3.958 --    87 C    1.636    89 C    1.181   117 H    0.973
    89   6 C    3.916 --    91 C    1.334    90 N    1.192    88 C    1.181
    90   7 N    3.347 --    86 C    1.234    89 C    1.192    63 Co   0.631
    91   6 C    3.931 --    89 C    1.334   101 C    1.315    92 C    1.030
    92   6 C    3.988 --    93 C    1.397   100 C    1.384    91 C    1.030
    93   6 C    3.977 --    92 C    1.397    94 C    1.380   118 H    0.970
    94   6 C    3.918 --    93 C    1.380    96 C    1.324    95 O    1.053
    95   8 O    2.049 --    94 C    1.053   119 H    0.847
    96   6 C    3.903 --    98 C    1.339    94 C    1.324    97 O    1.022
    97   8 O    2.021 --    96 C    1.022   120 H    0.846
    98   6 C    3.905 --   100 C    1.385    96 C    1.339    99 O    1.014
    99   8 O    2.025 --    98 C    1.014   121 H    0.861
   100   6 C    3.973 --    98 C    1.385    92 C    1.384   122 H    0.969
   101   6 C    3.919 --    91 C    1.315   105 N    1.216   102 C    1.178
   102   6 C    3.963 --   103 C    1.647   101 C    1.178   123 H    0.973
   103   6 C    3.959 --   102 C    1.647   104 C    1.175   124 H    0.975
   104   6 C    3.925 --    64 C    1.366   105 N    1.200   103 C    1.175
   105   7 N    3.344 --   101 C    1.216   104 C    1.200    63 Co   0.637
   106   1 H    1.000 --    64 C    0.970
   107   1 H    0.997 --    66 C    0.975
   108   1 H    1.005 --    67 C    0.973
   109   1 H    0.999 --    72 C    0.970
   110   1 H    0.877 --    74 O    0.847
   111   1 H    0.876 --    76 O    0.846
   112   1 H    0.881 --    78 O    0.860
   113   1 H    1.000 --    79 C    0.970
   114   1 H    1.005 --    81 C    0.973
   115   1 H    1.001 --    82 C    0.973
   116   1 H    1.001 --    87 C    0.973
   117   1 H    1.005 --    88 C    0.973
   118   1 H    1.000 --    93 C    0.970
   119   1 H    0.877 --    95 O    0.847
   120   1 H    0.876 --    97 O    0.846
   121   1 H    0.881 --    99 O    0.861
   122   1 H    1.001 --   100 C    0.969
   123   1 H    1.005 --   102 C    0.973
   124   1 H    0.998 --   103 C    0.975
   125   6 C    3.920 --   126 C    2.357   129 C    1.342   128 C    0.189
   126   6 C    3.920 --   125 C    2.357   127 C    1.342   130 C    0.189
   127   6 C    3.929 --   128 C    2.439   126 C    1.342
   128   6 C    3.884 --   127 C    2.439    23 C    1.194   125 C    0.189
   129   6 C    3.929 --   130 C    2.440   125 C    1.342
   130   6 C    3.884 --   129 C    2.440    85 C    1.194   126 C    0.189
 ---------------------------------------------------------------------------

           -------------------------------------------------
          | TOTAL ENERGY             -257.334623858718 Eh   |
          | GRADIENT NORM               0.000722655359 Eh/α |
          | HOMO-LUMO GAP               0.007070317140 eV   |
           -------------------------------------------------

 * finished run on 2022/07/30 at 04:00:10.467
