   * xtb version 6.5.1 (b24c23e) compiled by 'conda@728c89f4b128' on 2022-07-12
          program call               : xtb Co_C2Py_C8_2.xyz --gfn 1 --opt -T 48

   ID    Z sym.   atoms
    1   27 Co     1, 59
    2    6 C      2-6, 8-13, 15-19, 21-26, 28-33, 35-40, 60-64, 66-71, 73-77,
                  79-84, 86-91, 93-98, 117-124
    3    7 N      7, 14, 20, 27, 34, 41, 65, 72, 78, 85, 92, 99
    4    1 H      42-58, 100-116
########################################################################
[WARNING] Please study the warnings concerning your input carefully
-1- prog_main_parseArguments: Unknown option '-T' provided
########################################################################

          :  Hamiltonian                  GFN1-xTB          :
 * total energy  :  -223.4441431 Eh     change        0.4718004E-09 Eh
 * total energy  :  -223.6983361 Eh     change       -0.2541930E+00 Eh
 * total energy  :  -223.7724370 Eh     change       -0.7410090E-01 Eh
 * total energy  :  -223.8003182 Eh     change       -0.2788121E-01 Eh
 * total energy  :  -223.8104424 Eh     change       -0.1012422E-01 Eh
 * total energy  :  -223.8156188 Eh     change       -0.5176396E-02 Eh
 * total energy  :  -223.8184875 Eh     change       -0.2868703E-02 Eh
 * total energy  :  -223.8193260 Eh     change       -0.8385025E-03 Eh
 * total energy  :  -223.8198583 Eh     change       -0.5322937E-03 Eh
 * total energy  :  -223.8205116 Eh     change       -0.6532336E-03 Eh
 * total energy  :  -223.8218576 Eh     change       -0.1865664E-04 Eh
 * total energy  :  -223.8218781 Eh     change       -0.2054227E-04 Eh
 * total energy  :  -223.8219014 Eh     change       -0.2330989E-04 Eh
 * total energy  :  -223.8219146 Eh     change       -0.1315607E-04 Eh
 * total energy  :  -223.8219285 Eh     change       -0.1388828E-04 Eh
 * total energy  :  -223.8219350 Eh     change       -0.6528661E-05 Eh
 * total energy  :  -223.8219345 Eh     change        0.5172812E-06 Eh
 * total energy  :  -223.8219407 Eh     change       -0.6220376E-05 Eh
 * total energy  :  -223.8219439 Eh     change       -0.3152720E-05 Eh
   *** GEOMETRY OPTIMIZATION CONVERGED AFTER 40 ITERATIONS ***

 final structure:
================
124
 xtb: 6.5.1 (b24c23e)
Co          13.62671047085006        0.05607173037158       -0.01068796323324
C           10.24167903577697        0.11539160370785       -0.01058945901209
C           10.90517774231780        0.78249178662535        0.99609911541408
C           10.24714128173811        1.49825847317205        2.04652881678429
C           11.21391825076307        2.15171500877331        2.73404266698728
C           12.45558914475013        1.83362707410878        2.09791005985591
N           12.26651195188560        0.95752297117527        1.06662151816398
C           13.66483718923966        2.45211477356808        2.41562464781268
C           13.68470852028857        3.45106101072890        3.41231029072990
C           13.71316501725471        4.31142143115098        4.26739097625719
C           13.75476745303822        5.31607088535181        5.26129303653373
C           14.95605596685719        5.95294392885258        5.59443726505989
C           14.94694128063403        6.93141737090843        6.57239964357561
N           13.84489120130253        7.30280418626107        7.21898983367922
C           12.69894178902795        6.70263987492700        6.90756589464504
C           12.60028383644659        5.71288695113292        5.94574659348177
C           14.85509706915840        2.12436071039187        1.76964297151776
C           16.10393096619380        2.76131738284876        2.04588115108649
C           17.04889112993464        2.07730903453869        1.35555842144790
N           15.02092621148059        1.08724661673121        0.88783809046252
C           16.36964554105029        1.02704181562495        0.66569136623925
C           17.03192397399809        0.00528889394272       -0.02015233267736
C           16.33982680831609       -1.00660537669395       -0.69044739644396
C           16.98673407670308       -2.07870067061783       -1.37791280019823
C           16.01617351005439       -2.75669286177040       -2.03801004371901
C           14.78489767230953       -2.09102700256418       -1.75008054061623
N           14.98598773629233       -1.04635064095510       -0.88422372151165
C           13.58055012247725       -2.39644405320855       -2.37993728999529
C           13.55804536149141       -3.41315211870009       -3.35847412269421
C           13.53733052566801       -4.28845811835732       -4.19852740087820
C           13.51203825095226       -5.30745438628246       -5.17828335164170
C           14.67417374430768       -6.00194660413309       -5.53365585024154
C           14.59498328948158       -6.99097786102243       -6.49788742863220
N           13.46075375288843       -7.31999864624864       -7.11080836273353
C           12.35150120426724       -6.66481839123976       -6.77811780976502
C           12.32317353005692       -5.65981423254933       -5.82769044446411
C           12.39494622851492       -1.72647668923082       -2.07595138290061
C           11.14601076613014       -1.99655728261583       -2.71991635547649
C           10.20443269208212       -1.28571611680263       -2.05464785801413
C           10.88437152635922       -0.58709085372943       -1.00670101938896
N           12.23611604911674       -0.83014992601590       -1.05749326625325
H            9.15826729544787        0.14088118371161       -0.01684526804103
H            9.18139458021173        1.49775283257157        2.21097635235858
H           11.11452795500550        2.80551729038852        3.58569609370268
H           15.87650729908845        5.68086234231217        5.09211600664080
H           15.86446786106386        7.44134611214231        6.85160973001389
H           11.81952136375034        7.03019902815793        7.45449944141041
H           11.64627579562001        5.25044967099207        5.72331516692423
H           16.22615795504057        3.61314087609755        2.69531337167447
H           18.11285771696262        2.24643485693515        1.31754366465928
H           18.04818813681305       -2.26608365571783       -1.35787437520772
H           16.11019731142263       -3.61973688160234       -2.67728553160932
H           15.61896992077550       -5.76583672558364       -5.05918092792652
H           15.48085378393261       -7.54540322225902       -6.79380958281553
H           11.44409414284248       -6.95870459810346       -7.29779280788212
H           11.39733414002179       -5.15149594232988       -5.58694414765980
H           11.02426990338162       -2.65763154571094       -3.56297461803515
H            9.14191105439973       -1.23626342211104       -2.23207001802591
Co          32.17249507382417       -0.02281617476111       -0.05544612583098
C           35.55768464282462       -0.05303240504270       -0.10600662774730
C           34.89445670588485       -1.25954400134472       -0.16176886694904
C           35.55283552465352       -2.52824711326396       -0.23705278381994
C           34.58617922846696       -3.45406761560072       -0.44382696499265
C           33.34428590364681       -2.74517058361805       -0.49691199170396
N           33.53309432673136       -1.41031566636181       -0.27481452915821
C           32.13501538517621       -3.33574488733453       -0.86371387303750
C           32.11541177485884       -4.70423556057475       -1.20796255625665
C           32.08617062505105       -5.87947012182369       -1.50834289920473
C           32.04508287477977       -7.24761042001268       -1.86250407325594
C           30.84402347026339       -7.86069595157425       -2.23825232634570
C           30.85392150852759       -9.20174111718235       -2.57793653432153
N           31.95645569358145       -9.94659893801788       -2.56623320367751
C           33.10205264956256       -9.37118306251059       -2.21004353517066
C           33.19993277155884       -8.03817609758612       -1.85241794129014
C           30.94466825661794       -2.61338730886379       -0.91421226952237
C           29.69597543017423       -3.17806331423998       -1.31850802534297
C           28.75095532562634       -2.23409950023162       -1.08777260440051
N           30.77867330454458       -1.32383470829622       -0.47812016715110
C           29.42996364236645       -1.10226438667657       -0.54159042649165
C           28.76718888207785        0.01146500275411       -0.01881823855528
C           29.45868580040881        1.10692972321301        0.50462314273155
C           28.81119863244476        2.24797115377619        1.06962432571566
C           29.78170190623408        3.16229445522647        1.31365579021252
C           31.01346581055398        2.57271490879287        0.89267494732534
N           30.81266662601644        1.29316660143395        0.44104471564292
C           32.21819245215579        3.26951162624610        0.83329449806223
C           32.24047272716547        4.63121632403429        1.20343050468980
C           32.26121387107913        5.80145337614323        1.52337092815493
C           32.28547367541089        7.16530429461476        1.89524927689042
C           31.12251519260037        7.82596168392587        2.30783623450936
C           31.20035649207776        9.16130857688083        2.66129222115352
N           32.33404125078641        9.85714442482237        2.62952816323295
C           33.44402404563610        9.23613515007226        2.23880487330750
C           33.47370996412886        7.90449133342221        1.86464710872783
C           33.40407710017457        2.66451282501308        0.41545883611039
C           34.65302526103358        3.35586376745076        0.31735999204829
C           35.59468255718445        2.42020168273039        0.04851145882373
C           34.91478347229988        1.16226899594030       -0.01383797268498
N           33.56299570890758        1.33045717011065        0.16861709689620
H           36.64108970489693       -0.06050094688571       -0.13137251020806
H           36.61868737081042       -2.66876909610822       -0.15304621130439
H           34.68584042350059       -4.52057035155393       -0.56750700109969
H           29.92318703842078       -7.29052856871933       -2.26155160256930
H           29.93675974006118       -9.70309115490759       -2.87335951168699
H           33.98195080519392      -10.00807138561458       -2.21190743393038
H           34.15367520578580       -7.60976567822077       -1.56902655362890
H           29.57398829859325       -4.17317141602145       -1.71495075181292
H           27.68707601332033       -2.28834797788437       -1.25302282672153
H           27.74947987429672        2.32754487278166        1.23882462687383
H           29.68731886298520        4.15430312284840        1.72521195096776
H           30.17814509042655        7.29677014920721        2.34827671346103
H           30.31388407409621        9.69920801752016        2.98469358529119
H           34.35095369760429        9.83371147163516        2.22473656099187
H           34.40012716147220        7.43768500238349        1.55257769627161
H           34.77467363476185        4.41865409643089        0.45245183837164
H           36.65722278484537        2.54715262038188       -0.08476881237126
C           18.43378114271375       -0.00513617285960       -0.02914445066215
C           19.65901561917617       -0.00600642790501       -0.02990500599977
C           21.00000070818211       -0.00339010799718       -0.02878858628708
C           22.23157201310087        0.00538788137414       -0.02484055087546
C           23.56756085057643        0.01429930286674       -0.02102271937533
C           24.79913571009925        0.02312576121979       -0.01664484319486
C           26.14008367807914        0.02541982355919       -0.01552608570389
C           27.36535786270771        0.02416713874042       -0.01518380155839

          :  Hamiltonian                  GFN1-xTB          :
         :: total energy            -223.821943853381 Eh    ::
         :: gradient norm              0.000451798557 Eh/a0 ::
         :: HOMO-LUMO gap              0.003662461116 eV    ::
         :: SCC energy              -227.745598951874 Eh    ::
         :: repulsion energy           4.025081988359 Eh    ::

    * Orbital Energies and Occupations

         #    Occupation            Energy/Eh            Energy/eV
      -------------------------------------------------------------
         1        2.0000           -0.7789808             -21.1971
       ...           ...                  ...                  ...
       196        2.0000           -0.4219620             -11.4822
       197        2.0000           -0.4173428             -11.3565
       198        2.0000           -0.4047225             -11.0131
       199        2.0000           -0.4047105             -11.0127
       200        2.0000           -0.4024736             -10.9519
       201        2.0000           -0.4024649             -10.9516
       202        1.9999           -0.3997214             -10.8770
       203        1.9998           -0.3992718             -10.8647
       204        1.9998           -0.3992655             -10.8646
       205        1.9998           -0.3990865             -10.8597
       206        1.9998           -0.3990822             -10.8596
       207        1.7827           -0.3922989             -10.6750
       208        1.1440           -0.3905750             -10.6281 (HOMO)
       209        1.0741           -0.3904404             -10.6244 (LUMO)
       210                         -0.3475568              -9.4575
       211                         -0.3446034              -9.3771
       212                         -0.3445926              -9.3768
       213                         -0.3360681              -9.1449
       214                         -0.3187198              -8.6728
       215                         -0.3152282              -8.5778
       216                         -0.3109636              -8.4617
       217                         -0.3030794              -8.2472
       218                         -0.3029923              -8.2448
       219                         -0.2951676              -8.0319
       ...                                ...                  ...
       438                          1.5956116              43.4188
      -------------------------------------------------------------
                  HL-Gap            0.0001346 Eh            0.0037 eV

Wiberg/Mayer (AO) data.
largest (>0.10) Wiberg bond orders for each atom

     #   Z sym  total        # sym  WBO       # sym  WBO       # sym  WBO
 ---------------------------------------------------------------------------
     1  27 Co   2.997 --     7 N    0.630    41 N    0.629    27 N    0.626
                            20 N    0.626
     2   6 C    3.928 --     3 C    1.367    40 C    1.367    42 H    0.970
     3   6 C    3.916 --     2 C    1.367     7 N    1.195     4 C    1.176
     4   6 C    3.959 --     5 C    1.644     3 C    1.176    43 H    0.975
     5   6 C    3.962 --     4 C    1.644     6 C    1.183    44 H    0.974
     6   6 C    3.911 --     8 C    1.270     7 N    1.233     5 C    1.183
     7   7 N    3.343 --     6 C    1.233     3 C    1.195     1 Co   0.630
     8   6 C    3.929 --    17 C    1.281     6 C    1.270     9 C    1.158
     9   6 C    3.957 --    10 C    2.625     8 C    1.158
    10   6 C    3.932 --     9 C    2.625    11 C    1.141
    11   6 C    3.987 --    16 C    1.351    12 C    1.350    10 C    1.141
    12   6 C    3.973 --    13 C    1.457    11 C    1.350    45 H    0.974
                            15 C    0.104
    13   6 C    3.973 --    12 C    1.457    14 N    1.407    46 H    0.972
                            16 C    0.104
    14   7 N    2.994 --    15 C    1.408    13 C    1.407
    15   6 C    3.973 --    16 C    1.456    14 N    1.408    47 H    0.972
                            12 C    0.104
    16   6 C    3.973 --    15 C    1.456    11 C    1.351    48 H    0.974
                            13 C    0.104
    17   6 C    3.906 --     8 C    1.281    20 N    1.211    18 C    1.190
    18   6 C    3.958 --    19 C    1.631    17 C    1.190    49 H    0.974
    19   6 C    3.960 --    18 C    1.631    21 C    1.192    50 H    0.973
    20   7 N    3.344 --    21 C    1.225    17 C    1.211     1 Co   0.626
    21   6 C    3.893 --    22 C    1.257    20 N    1.225    19 C    1.192
    22   6 C    3.930 --    23 C    1.258    21 C    1.257   117 C    1.196
    23   6 C    3.894 --    22 C    1.258    27 N    1.226    24 C    1.192
    24   6 C    3.960 --    25 C    1.632    23 C    1.192    51 H    0.973
    25   6 C    3.958 --    24 C    1.632    26 C    1.190    52 H    0.974
    26   6 C    3.906 --    28 C    1.283    27 N    1.211    25 C    1.190
    27   7 N    3.343 --    23 C    1.226    26 C    1.211     1 Co   0.626
    28   6 C    3.929 --    26 C    1.283    37 C    1.268    29 C    1.158
    29   6 C    3.957 --    30 C    2.625    28 C    1.158
    30   6 C    3.932 --    29 C    2.625    31 C    1.141
    31   6 C    3.987 --    32 C    1.351    36 C    1.351    30 C    1.141
    32   6 C    3.973 --    33 C    1.456    31 C    1.351    53 H    0.974
                            35 C    0.104
    33   6 C    3.973 --    32 C    1.456    34 N    1.407    54 H    0.972
                            36 C    0.104
    34   7 N    2.994 --    33 C    1.407    35 C    1.407
    35   6 C    3.973 --    36 C    1.456    34 N    1.407    55 H    0.972
                            32 C    0.104
    36   6 C    3.973 --    35 C    1.456    31 C    1.351    56 H    0.974
                            33 C    0.104
    37   6 C    3.911 --    28 C    1.268    41 N    1.233    38 C    1.184
    38   6 C    3.962 --    39 C    1.644    37 C    1.184    57 H    0.974
    39   6 C    3.959 --    38 C    1.644    40 C    1.176    58 H    0.975
    40   6 C    3.916 --     2 C    1.367    41 N    1.194    39 C    1.176
    41   7 N    3.344 --    37 C    1.233    40 C    1.194     1 Co   0.629
    42   1 H    1.000 --     2 C    0.970
    43   1 H    0.997 --     4 C    0.975
    44   1 H    1.002 --     5 C    0.974
    45   1 H    1.002 --    12 C    0.974
    46   1 H    1.013 --    13 C    0.972
    47   1 H    1.013 --    15 C    0.972
    48   1 H    1.002 --    16 C    0.974
    49   1 H    1.002 --    18 C    0.974
    50   1 H    1.001 --    19 C    0.973
    51   1 H    1.001 --    24 C    0.973
    52   1 H    1.002 --    25 C    0.974
    53   1 H    1.002 --    32 C    0.974
    54   1 H    1.013 --    33 C    0.972
    55   1 H    1.013 --    35 C    0.972
    56   1 H    1.002 --    36 C    0.974
    57   1 H    1.002 --    38 C    0.974
    58   1 H    0.997 --    39 C    0.975
    59  27 Co   2.997 --    65 N    0.630    99 N    0.629    85 N    0.626
                            78 N    0.626
    60   6 C    3.928 --    61 C    1.367    98 C    1.367   100 H    0.970
    61   6 C    3.916 --    60 C    1.367    65 N    1.195    62 C    1.176
    62   6 C    3.959 --    63 C    1.644    61 C    1.176   101 H    0.975
    63   6 C    3.962 --    62 C    1.644    64 C    1.183   102 H    0.974
    64   6 C    3.911 --    66 C    1.270    65 N    1.233    63 C    1.183
    65   7 N    3.343 --    64 C    1.233    61 C    1.195    59 Co   0.630
    66   6 C    3.929 --    75 C    1.281    64 C    1.270    67 C    1.158
    67   6 C    3.957 --    68 C    2.625    66 C    1.158
    68   6 C    3.932 --    67 C    2.625    69 C    1.141
    69   6 C    3.987 --    74 C    1.351    70 C    1.350    68 C    1.141
    70   6 C    3.973 --    71 C    1.457    69 C    1.350   103 H    0.974
                            73 C    0.104
    71   6 C    3.973 --    70 C    1.457    72 N    1.407   104 H    0.972
                            74 C    0.104
    72   7 N    2.994 --    73 C    1.408    71 C    1.407
    73   6 C    3.973 --    74 C    1.456    72 N    1.408   105 H    0.972
                            70 C    0.104
    74   6 C    3.973 --    73 C    1.456    69 C    1.351   106 H    0.974
                            71 C    0.104
    75   6 C    3.906 --    66 C    1.281    78 N    1.211    76 C    1.190
    76   6 C    3.958 --    77 C    1.631    75 C    1.190   107 H    0.974
    77   6 C    3.960 --    76 C    1.631    79 C    1.192   108 H    0.973
    78   7 N    3.344 --    79 C    1.225    75 C    1.211    59 Co   0.626
    79   6 C    3.893 --    80 C    1.257    78 N    1.225    77 C    1.192
    80   6 C    3.930 --    81 C    1.258    79 C    1.257   124 C    1.196
    81   6 C    3.894 --    80 C    1.258    85 N    1.226    82 C    1.192
    82   6 C    3.960 --    83 C    1.632    81 C    1.192   109 H    0.973
    83   6 C    3.958 --    82 C    1.632    84 C    1.190   110 H    0.974
    84   6 C    3.906 --    86 C    1.283    85 N    1.211    83 C    1.190
    85   7 N    3.343 --    81 C    1.226    84 C    1.211    59 Co   0.626
    86   6 C    3.929 --    84 C    1.283    95 C    1.268    87 C    1.158
    87   6 C    3.957 --    88 C    2.625    86 C    1.158
    88   6 C    3.932 --    87 C    2.625    89 C    1.141
    89   6 C    3.987 --    90 C    1.351    94 C    1.351    88 C    1.141
    90   6 C    3.973 --    91 C    1.456    89 C    1.351   111 H    0.974
                            93 C    0.104
    91   6 C    3.973 --    90 C    1.456    92 N    1.407   112 H    0.972
                            94 C    0.104
    92   7 N    2.994 --    93 C    1.407    91 C    1.407
    93   6 C    3.973 --    94 C    1.456    92 N    1.407   113 H    0.972
                            90 C    0.104
    94   6 C    3.973 --    93 C    1.456    89 C    1.351   114 H    0.974
                            91 C    0.104
    95   6 C    3.911 --    86 C    1.268    99 N    1.233    96 C    1.184
    96   6 C    3.962 --    97 C    1.644    95 C    1.184   115 H    0.974
    97   6 C    3.959 --    96 C    1.644    98 C    1.176   116 H    0.975
    98   6 C    3.916 --    60 C    1.367    99 N    1.194    97 C    1.176
    99   7 N    3.344 --    95 C    1.233    98 C    1.194    59 Co   0.629
   100   1 H    1.000 --    60 C    0.970
   101   1 H    0.997 --    62 C    0.975
   102   1 H    1.002 --    63 C    0.974
   103   1 H    1.002 --    70 C    0.974
   104   1 H    1.013 --    71 C    0.972
   105   1 H    1.013 --    73 C    0.972
   106   1 H    1.002 --    74 C    0.974
   107   1 H    1.002 --    76 C    0.974
   108   1 H    1.001 --    77 C    0.973
   109   1 H    1.001 --    82 C    0.973
   110   1 H    1.002 --    83 C    0.974
   111   1 H    1.002 --    90 C    0.974
   112   1 H    1.013 --    91 C    0.972
   113   1 H    1.013 --    93 C    0.972
   114   1 H    1.002 --    94 C    0.974
   115   1 H    1.002 --    96 C    0.974
   116   1 H    0.997 --    97 C    0.975
   117   6 C    3.870 --   118 C    2.428    22 C    1.196   120 C    0.185
   118   6 C    3.931 --   117 C    2.428   119 C    1.353
   119   6 C    3.886 --   120 C    2.322   118 C    1.353   122 C    0.180
   120   6 C    3.920 --   119 C    2.322   121 C    1.379   117 C    0.185
   121   6 C    3.920 --   122 C    2.322   120 C    1.379   124 C    0.185
   122   6 C    3.886 --   121 C    2.322   123 C    1.353   119 C    0.180
   123   6 C    3.931 --   124 C    2.428   122 C    1.353
   124   6 C    3.870 --   123 C    2.428    80 C    1.196   121 C    0.185
 ---------------------------------------------------------------------------

           -------------------------------------------------
          | TOTAL ENERGY             -223.821943853381 Eh   |
          | GRADIENT NORM               0.000451798557 Eh/α |
          | HOMO-LUMO GAP               0.003662461116 eV   |
           -------------------------------------------------

 * finished run on 2022/07/30 at 00:34:53.714
