   * xtb version 6.5.1 (b24c23e) compiled by 'conda@728c89f4b128' on 2022-07-12
          program call               : xtb Fe_Py_C2_3.xyz --gfn 1 --opt -T 48

   ID    Z sym.   atoms
    1   26 Fe     1, 55, 113
    2    6 C      2-6, 8-11, 13-17, 19-24, 26-29, 31-36, 56-60, 62-65, 67-71,
                  73-78, 80-83, 85-90, 109-112, 114-118, 120-123, 125-129,
                  131-136, 138-141, 143-148
    3    7 N      7, 12, 18, 25, 30, 37, 61, 66, 72, 79, 84, 91, 119, 124,
                  130, 137, 142, 149
    4    1 H      38-54, 92-108, 150-165

          :  Hamiltonian                  GFN1-xTB          :
 * total energy  :  -291.4487110 Eh     change       -0.3288847E-08 Eh
 * total energy  :  -291.5955926 Eh     change       -0.1468816E+00 Eh
 * total energy  :  -291.7020373 Eh     change       -0.1064447E+00 Eh
 * total energy  :  -291.7678244 Eh     change       -0.6578715E-01 Eh
 * total energy  :  -291.8038590 Eh     change       -0.3603461E-01 Eh
 * total energy  :  -291.8264573 Eh     change       -0.2259821E-01 Eh
 * total energy  :  -291.8452101 Eh     change       -0.1875281E-01 Eh
 * total energy  :  -291.8605559 Eh     change       -0.1534586E-01 Eh
 * total energy  :  -291.8733048 Eh     change       -0.1274893E-01 Eh
 * total energy  :  -291.8840842 Eh     change       -0.1077939E-01 Eh
 * total energy  :  -291.9517099 Eh     change       -0.1299840E-04 Eh
 * total energy  :  -291.9517187 Eh     change       -0.8819894E-05 Eh
 * total energy  :  -291.9517254 Eh     change       -0.6630633E-05 Eh
 * total energy  :  -291.9517320 Eh     change       -0.6685228E-05 Eh
 * total energy  :  -291.9517380 Eh     change       -0.6012874E-05 Eh
 * total energy  :  -291.9517442 Eh     change       -0.6143297E-05 Eh
 * total energy  :  -291.9517527 Eh     change       -0.8475188E-05 Eh
 * total energy  :  -291.9517643 Eh     change       -0.1166852E-04 Eh
 * total energy  :  -291.9517680 Eh     change       -0.3659881E-05 Eh
   *** GEOMETRY OPTIMIZATION CONVERGED AFTER 68 ITERATIONS ***

 final structure:
================
165
 xtb: 6.5.1 (b24c23e)
Fe          27.33444232837702       -0.02590513411682       -0.00652951648448
C           23.95034769928845       -0.03417218627465        0.01920486486952
C           24.59901411359934       -1.25231058623941        0.01738619327153
C           23.92321654661369       -2.51485842232353        0.02167779999432
C           24.87728145486184       -3.46544545972701        0.15948531601957
C           26.13662691598759       -2.78210738092832        0.23497877493705
N           25.95372980479332       -1.43095845817681        0.11769756055550
C           27.34530738084956       -3.40601432889319        0.52564769382861
C           27.34930290526163       -4.87282248136938        0.73807260615398
C           27.64769268742309       -5.42645472482860        1.98183393944503
C           27.63773214793471       -6.80513465561757        2.12601744054915
N           27.35986212360678       -7.63600663767118        1.12671255799466
C           27.07609034664813       -7.11537538891054       -0.06274209115499
C           27.05533111023244       -5.75070088732329       -0.30409710842267
C           28.54632399623026       -2.71776014184012        0.62344202752204
C           29.80541321703514       -3.33614926311092        0.91621029592046
C           30.75363294553226       -2.37918740933524        0.77381373701461
N           28.72772965944039       -1.38716640712627        0.33018862546276
C           30.07443785546110       -1.18202565223348        0.38658289366032
C           30.73759719059176       -0.01694957729153       -0.01712332352901
C           30.06299011411236        1.14366326808747       -0.41427445725155
C           30.72618617664296        2.33216764905712       -0.85172860717442
C           29.77108900152915        3.28401237678260       -0.98581077714030
C           28.52678211988954        2.67478638688470       -0.62038106855105
N           28.71808502223219        1.34799718126126       -0.31938102689580
C           27.32226348062526        3.35848885991811       -0.52325236388912
C           27.32151828665353        4.82347638364168       -0.73405780660757
C           26.57338496872009        5.41303462067078       -1.75241514206828
C           26.60875413992249        6.79009926630377       -1.90569176669918
N           27.32326074472737        7.58867556240385       -1.11940128961840
C           28.03761894248346        7.03497111189618       -0.14484628971095
C           28.07123133062888        5.66858005680346        0.08374853798985
C           26.11791566070219        2.72459874888357       -0.23429786022624
C           24.86224743309615        3.40349808204259       -0.09066719573329
C           23.91444694770476        2.44715523484363        0.05276632678762
C           24.59311907980632        1.18694019100447        0.01163442409821
N           25.94455588106564        1.37211296629204       -0.11897106976031
H           22.86624701965002       -0.03679605856772        0.03150060260491
H           22.85471079166654       -2.63696995103225       -0.05803432672441
H           24.75105617588656       -4.53400079931507        0.22352372390159
H           27.86973991525547       -4.78687448433542        2.82765104368475
H           27.86286295915404       -7.26096251796058        3.08574120380864
H           26.85508026021988       -7.81985309781087       -0.85922806079162
H           26.82846052549774       -5.37048636112123       -1.29292630888496
H           29.93891955025752       -4.37307793063752        1.17787278603266
H           31.82095350718469       -2.46812023621323        0.89646901784798
H           31.78706044267258        2.41640286915321       -1.02379346814258
H           29.88813417397680        4.30639440059265       -1.30625737257858
H           25.98583611879449        4.80056008665019       -2.42584366720423
H           26.03871868943765        7.27203314889802       -2.69457776524502
H           28.60833967810560        7.71345683818640        0.48241479877899
H           28.65880014143321        5.26194037693097        0.89821145748076
H           24.73527078517802        4.47386069442602       -0.09856471396294
H           22.84956849202138        2.56472724127082        0.17598667118366
Fe          49.03385446145847        0.05376065414741       -0.01206919868539
C           52.42688953645965        0.05538999426500       -0.06057518578573
C           51.77764039300578        1.22397322617734       -0.40063559264384
C           52.45970720830746        2.43059746559733       -0.76019235613726
C           51.50779809582586        3.37751290587733       -0.93058795306677
C           50.24422739030629        2.74409677220158       -0.68439744926588
N           50.42238864595706        1.42379622899781       -0.37250993267590
C           49.02751251639258        3.41752312423856       -0.67946369212550
C           49.02573679353965        4.87169844434447       -0.96629995240878
C           48.65313989843265        5.80102783273434        0.00350280407155
C           48.67017742293182        7.15035192299588       -0.31348789820805
N           49.02331475215724        7.60890413674190       -1.50984932721001
C           49.37773858709263        6.72873279560299       -2.44043025387498
C           49.39718672571797        5.36081777082339       -2.21772637874134
C           47.81592592006902        2.79177802600597       -0.42515706977928
C           46.55240133087724        3.46685594105791       -0.44758258870214
C           45.60169912849246        2.52026098120477       -0.26382737108790
N           47.63349513724927        1.44489122841745       -0.21632010907010
C           46.28353194294703        1.27031300368980       -0.13908138407088
C           45.61765677165371        0.04612104428007        0.00157767184966
C           46.29158083128940       -1.17217678759853        0.15415530556125
C           45.62049118112029       -2.42955948297513        0.25996278204697
C           46.57669873652945       -3.36637893173257        0.46556253869895
C           47.83172550682357       -2.67602633967553        0.48489708074913
N           47.64150041801825       -1.33339817291203        0.25961834307516
C           49.04995477392755       -3.29798585449033        0.71811427672783
C           49.05472097792864       -4.74550518352630        1.03164504094094
C           49.68707041542981       -5.66632274461251        0.19724965359194
C           49.66019641887532       -7.01085508950788        0.53279722321845
N           49.06091557126545       -7.47294986765189        1.62537092881824
C           48.45802400713926       -6.60129215390134        2.42737561897339
C           48.42495421232027       -5.23917715241024        2.17348170994622
C           50.26630434311659       -2.62622443769375        0.66258246901495
C           51.53466184280921       -3.24305792897921        0.92507588052984
C           52.48107726822097       -2.30285428924206        0.69586641236437
C           51.78899576380972       -1.11085854501921        0.30798152061451
N           50.43381227786069       -1.31231905773812        0.31916464515429
H           53.51100858009309        0.05629234736946       -0.07501280929568
H           53.53008940928040        2.52375164926866       -0.85259486861400
H           51.63758354753690        4.41645994845371       -1.18639816705671
H           48.36818947480943        5.47302031047059        0.99598427410829
H           48.38780102123813        7.89424399142121        0.42570758721455
H           49.65896428529561        7.13406274440907       -3.40797644636568
H           49.68294610172561        4.67890033932781       -3.00965292395440
H           46.41906449590820        4.52552903307925       -0.59842330037563
H           44.53232026123121        2.64427607111550       -0.21751242914493
H           44.55495062833806       -2.56652191734674        0.17735151261917
H           46.45415636385445       -4.43062352840543        0.58297087166127
H           50.17862717386301       -5.33624727963788       -0.71009948672554
H           50.14128905188235       -7.74783290929839       -0.10356668462100
H           47.97922919200838       -7.00923909596770        3.31273070922001
H           47.92979923660676       -4.56359859518509        2.86072821308494
H           51.66984675364972       -4.26312111829432        1.24592067489456
H           53.55287262974194       -2.38813301076650        0.77903286476882
C           32.14182353217105       -0.01396481131274       -0.02811955270995
C           33.36024149044353       -0.00989301347102       -0.03488684123083
C           42.99381917156072        0.03112300965482       -0.01798346179402
C           44.21316432374257        0.03975077405092       -0.00927382782377
Fe          38.17611170256193        0.00075230671234       -0.03842825095208
C           34.76369659677257       -0.01208210107719       -0.04206839601114
C           35.43846423718492       -0.81536644227295        0.88585225990152
C           34.77779863897018       -1.59298236131136        1.88588531381827
C           35.73654023343446       -2.32480959503636        2.50514368032559
C           36.97810690012567       -1.99510067810903        1.87262582865795
N           36.78403337088255       -1.03197441749292        0.91386611784883
C           38.18638011225424       -2.62691999451242        2.14303815452131
C           38.19450073488586       -3.75010371988535        3.10650546297272
C           37.43751146972529       -4.90044603123554        2.88706934009949
C           37.47876147888452       -5.92394713290017        3.82073683732481
N           38.20678386033627       -5.86266776532238        4.93094875189850
C           38.92910141645976       -4.76856161608432        5.14910865633162
C           38.95801237940920       -3.69570602685996        4.27229673354539
C           39.38831496403314       -2.24717717538794        1.55746195320410
C           40.63552381952257       -2.91408576714523        1.77946368579300
C           41.58903555737485       -2.16789891529140        1.17008771755667
N           39.57448996508014       -1.13977346369311        0.76660867444801
C           40.92085992475204       -1.05861864760594        0.56706618081541
C           41.59050771700956        0.01895871801007       -0.02975530451174
C           40.91074481369629        1.08058807137178       -0.64304057906475
C           41.56708627123474        2.19596199887800       -1.24794072534817
C           40.61038488765630        2.91167696670345       -1.88834071709434
C           39.37283283664646        2.22335732901842       -1.67821652885961
N           39.56735849244997        1.12859800089138       -0.87275335713340
C           38.17053117233939        2.57868549047948       -2.27881929552475
C           38.17225501764256        3.68973613879294       -3.25628237957744
C           38.94262382149865        3.62847603325085       -4.41714549357859
C           38.90700176921308        4.68964589471965       -5.30788599643268
N           38.17261542273638        5.77905256879473       -5.10730695020402
C           37.43900181437706        5.84746044224398       -4.00122396699186
C           37.40340485155212        4.83555661469894       -3.05481459131605
C           36.96657719237092        1.94273172542727       -1.99985071399724
C           35.72049413012988        2.26503388304431       -2.62768754645192
C           34.76465138073515        1.54947347955607       -1.98560549168409
C           35.43209931877206        0.78407814198923       -0.98063794214329
N           36.77853709501841        0.99118770591329       -1.02784045107453
H           33.71800975789960       -1.57056314355024        2.08166172885323
H           35.62222339303946       -3.02117287157657        3.31965938906777
H           36.83865588339432       -4.99910667755891        1.98960688702582
H           36.90177767547523       -6.83154574443270        3.66993867564039
H           39.51082938904120       -4.74736102730981        6.06591201969565
H           39.55184174590638       -2.81788834743841        4.49738825449101
H           40.75765199491501       -3.83236085881108        2.33011372484768
H           42.65195858302209       -2.34008289801823        1.13341910759518
H           42.62513568309479        2.39190968695840       -1.19213641187495
H           40.72378581975847        3.82416526973916       -2.45041747126013
H           39.54704288440007        2.75426009072616       -4.62760628780442
H           39.49388111500480        4.66297276405870       -6.22128020581953
H           36.85210802536779        6.75099757766451       -3.86482598033603
H           36.79963000038141        4.93992562124127       -2.16127490643928
H           35.60096173288467        2.94770260488934       -3.45295293624180
H           33.70276703143981        1.52912189273243       -2.16995985502839

          :  Hamiltonian                  GFN1-xTB          :
         :: total energy            -291.951767992847 Eh    ::
         :: gradient norm              0.000372790025 Eh/a0 ::
         :: HOMO-LUMO gap              0.054537823824 eV    ::
         :: SCC energy              -296.472167952733 Eh    ::
         :: repulsion energy           4.678350929303 Eh    ::

    * Orbital Energies and Occupations

         #    Occupation            Energy/Eh            Energy/eV
      -------------------------------------------------------------
         1        2.0000           -0.7795059             -21.2114
       ...           ...                  ...                  ...
       258        2.0000           -0.4041495             -10.9975
       259        2.0000           -0.4037144             -10.9856
       260        1.9999           -0.3997261             -10.8771
       261        1.9930           -0.3956591             -10.7664
       262        1.9925           -0.3955925             -10.7646
       263        1.9916           -0.3954901             -10.7618
       264        1.9663           -0.3941552             -10.7255
       265        1.9588           -0.3939608             -10.7202
       266        1.9549           -0.3938746             -10.7179
       267        1.9518           -0.3938100             -10.7161
       268        1.9518           -0.3938091             -10.7161
       269        1.9472           -0.3937198             -10.7137
       270        1.2752           -0.3908295             -10.6350 (HOMO)
       271        0.3517           -0.3888253             -10.5805 (LUMO)
       272        0.3401           -0.3887867             -10.5794
       273        0.3252           -0.3887358             -10.5780
       274                         -0.3508609              -9.5474
       275                         -0.3388489              -9.2205
       276                         -0.3385953              -9.2136
       277                         -0.3357778              -9.1370
       278                         -0.3355305              -9.1303
       279                         -0.3284409              -8.9373
       280                         -0.3103538              -8.4452
       281                         -0.3083911              -8.3918
       ...                                ...                  ...
       575                          1.3266147              36.0990
      -------------------------------------------------------------
                  HL-Gap            0.0020042 Eh            0.0545 eV

Wiberg/Mayer (AO) data.
largest (>0.10) Wiberg bond orders for each atom

     #   Z sym  total        # sym  WBO       # sym  WBO       # sym  WBO
 ---------------------------------------------------------------------------
     1  26 Fe   3.113 --    37 N    0.667     7 N    0.665    18 N    0.659
                            25 N    0.658
     2   6 C    3.917 --    36 C    1.363     3 C    1.363    38 H    0.970
     3   6 C    3.924 --     2 C    1.363     7 N    1.209     4 C    1.172
     4   6 C    3.959 --     5 C    1.651     3 C    1.172    39 H    0.975
     5   6 C    3.962 --     4 C    1.651     6 C    1.174    40 H    0.973
     6   6 C    3.921 --     8 C    1.314     7 N    1.224     5 C    1.174
     7   7 N    3.378 --     6 C    1.224     3 C    1.209     1 Fe   0.665
     8   6 C    3.919 --    15 C    1.335     6 C    1.314     9 C    1.023
     9   6 C    3.986 --    10 C    1.395    14 C    1.394     8 C    1.023
                            12 N    0.107
    10   6 C    3.987 --    11 C    1.441     9 C    1.395    41 H    0.973
                            13 C    0.109
    11   6 C    3.972 --    10 C    1.441    12 N    1.417    42 H    0.972
                            14 C    0.109
    12   7 N    3.031 --    11 C    1.417    13 C    1.416     9 C    0.107
    13   6 C    3.972 --    14 C    1.441    12 N    1.416    43 H    0.972
                            10 C    0.109
    14   6 C    3.987 --    13 C    1.441     9 C    1.394    44 H    0.973
                            11 C    0.109
    15   6 C    3.918 --     8 C    1.335    18 N    1.200    16 C    1.178
    16   6 C    3.957 --    17 C    1.640    15 C    1.178    45 H    0.973
    17   6 C    3.961 --    16 C    1.640    19 C    1.186    46 H    0.971
    18   7 N    3.376 --    19 C    1.244    15 C    1.200     1 Fe   0.659
    19   6 C    3.909 --    20 C    1.255    18 N    1.244    17 C    1.186
    20   6 C    3.918 --    19 C    1.255    21 C    1.255   109 C    1.191
    21   6 C    3.909 --    20 C    1.255    25 N    1.243    22 C    1.188
    22   6 C    3.960 --    23 C    1.638    21 C    1.188    47 H    0.971
    23   6 C    3.957 --    22 C    1.638    24 C    1.179    48 H    0.973
    24   6 C    3.919 --    26 C    1.331    25 N    1.201    23 C    1.179
    25   7 N    3.376 --    21 C    1.243    24 C    1.201     1 Fe   0.658
    26   6 C    3.920 --    24 C    1.331    33 C    1.312    27 C    1.031
    27   6 C    3.986 --    28 C    1.392    32 C    1.391    26 C    1.031
                            30 N    0.106
    28   6 C    3.986 --    29 C    1.442    27 C    1.392    49 H    0.973
                            31 C    0.108
    29   6 C    3.972 --    28 C    1.442    30 N    1.416    50 H    0.972
                            32 C    0.109
    30   7 N    3.030 --    29 C    1.416    31 C    1.415    27 C    0.106
    31   6 C    3.972 --    32 C    1.442    30 N    1.415    51 H    0.972
                            28 C    0.108
    32   6 C    3.986 --    31 C    1.442    27 C    1.391    52 H    0.973
                            29 C    0.109
    33   6 C    3.921 --    26 C    1.312    37 N    1.224    34 C    1.175
    34   6 C    3.962 --    35 C    1.650    33 C    1.175    53 H    0.973
    35   6 C    3.959 --    34 C    1.650    36 C    1.173    54 H    0.975
    36   6 C    3.924 --     2 C    1.363    37 N    1.208    35 C    1.173
    37   7 N    3.378 --    33 C    1.224    36 C    1.208     1 Fe   0.667
    38   1 H    1.000 --     2 C    0.970
    39   1 H    0.997 --     4 C    0.975
    40   1 H    1.004 --     5 C    0.973
    41   1 H    1.003 --    10 C    0.973
    42   1 H    1.013 --    11 C    0.972
    43   1 H    1.013 --    13 C    0.972
    44   1 H    1.003 --    14 C    0.973
    45   1 H    1.004 --    16 C    0.973
    46   1 H    1.004 --    17 C    0.971
    47   1 H    1.004 --    22 C    0.971
    48   1 H    1.004 --    23 C    0.973
    49   1 H    1.004 --    28 C    0.973
    50   1 H    1.013 --    29 C    0.972
    51   1 H    1.013 --    31 C    0.972
    52   1 H    1.004 --    32 C    0.973
    53   1 H    1.004 --    34 C    0.973
    54   1 H    0.997 --    35 C    0.975
    55  26 Fe   3.088 --    91 N    0.662    61 N    0.661    72 N    0.655
                            79 N    0.654
    56   6 C    3.915 --    57 C    1.363    90 C    1.363    92 H    0.970
    57   6 C    3.924 --    56 C    1.363    61 N    1.210    58 C    1.172
    58   6 C    3.959 --    59 C    1.651    57 C    1.172    93 H    0.975
    59   6 C    3.962 --    58 C    1.651    60 C    1.174    94 H    0.972
    60   6 C    3.921 --    62 C    1.312    61 N    1.227    59 C    1.174
    61   7 N    3.376 --    60 C    1.227    57 C    1.210    55 Fe   0.661
    62   6 C    3.918 --    69 C    1.336    60 C    1.312    63 C    1.024
    63   6 C    3.986 --    64 C    1.394    68 C    1.394    62 C    1.024
                            66 N    0.107
    64   6 C    3.987 --    65 C    1.441    63 C    1.394    95 H    0.973
                            67 C    0.109
    65   6 C    3.972 --    64 C    1.441    66 N    1.416    96 H    0.972
                            68 C    0.109
    66   7 N    3.031 --    65 C    1.416    67 C    1.416    63 C    0.107
    67   6 C    3.972 --    68 C    1.441    66 N    1.416    97 H    0.972
                            64 C    0.109
    68   6 C    3.987 --    67 C    1.441    63 C    1.394    98 H    0.973
                            65 C    0.109
    69   6 C    3.919 --    62 C    1.336    72 N    1.200    70 C    1.178
    70   6 C    3.956 --    71 C    1.639    69 C    1.178    99 H    0.972
    71   6 C    3.961 --    70 C    1.639    73 C    1.188   100 H    0.968
    72   7 N    3.375 --    73 C    1.248    69 C    1.200    55 Fe   0.655
    73   6 C    3.908 --    74 C    1.252    72 N    1.248    71 C    1.188
    74   6 C    3.916 --    75 C    1.252    73 C    1.252   112 C    1.196
    75   6 C    3.908 --    74 C    1.252    79 N    1.247    76 C    1.188
    76   6 C    3.961 --    77 C    1.637    75 C    1.188   101 H    0.968
    77   6 C    3.956 --    76 C    1.637    78 C    1.179   102 H    0.973
    78   6 C    3.919 --    80 C    1.333    79 N    1.201    77 C    1.179
    79   7 N    3.374 --    75 C    1.247    78 C    1.201    55 Fe   0.654
    80   6 C    3.918 --    78 C    1.333    87 C    1.312    81 C    1.028
    81   6 C    3.986 --    82 C    1.392    86 C    1.392    80 C    1.028
                            84 N    0.107
    82   6 C    3.986 --    83 C    1.442    81 C    1.392   103 H    0.973
                            85 C    0.109
    83   6 C    3.972 --    82 C    1.442    84 N    1.416   104 H    0.972
                            86 C    0.109
    84   7 N    3.030 --    83 C    1.416    85 C    1.416    81 C    0.107
    85   6 C    3.972 --    86 C    1.442    84 N    1.416   105 H    0.972
                            82 C    0.109
    86   6 C    3.987 --    85 C    1.442    81 C    1.392   106 H    0.973
                            83 C    0.109
    87   6 C    3.921 --    80 C    1.312    91 N    1.226    88 C    1.174
    88   6 C    3.962 --    89 C    1.650    87 C    1.174   107 H    0.973
    89   6 C    3.959 --    88 C    1.650    90 C    1.172   108 H    0.975
    90   6 C    3.924 --    56 C    1.363    91 N    1.210    89 C    1.172
    91   7 N    3.376 --    87 C    1.226    90 C    1.210    55 Fe   0.662
    92   1 H    1.000 --    56 C    0.970
    93   1 H    0.997 --    58 C    0.975
    94   1 H    1.004 --    59 C    0.972
    95   1 H    1.003 --    64 C    0.973
    96   1 H    1.013 --    65 C    0.972
    97   1 H    1.013 --    67 C    0.972
    98   1 H    1.003 --    68 C    0.973
    99   1 H    1.004 --    70 C    0.972
   100   1 H    1.005 --    71 C    0.968
   101   1 H    1.005 --    76 C    0.968
   102   1 H    1.004 --    77 C    0.973
   103   1 H    1.003 --    82 C    0.973
   104   1 H    1.013 --    83 C    0.972
   105   1 H    1.013 --    85 C    0.972
   106   1 H    1.003 --    86 C    0.973
   107   1 H    1.004 --    88 C    0.973
   108   1 H    0.997 --    89 C    0.975
   109   6 C    3.914 --   110 C    2.547    20 C    1.191
   110   6 C    3.922 --   109 C    2.547   114 C    1.195
   111   6 C    3.921 --   112 C    2.543   132 C    1.200
   112   6 C    3.916 --   111 C    2.543    74 C    1.196
   113  26 Fe   3.076 --   130 N    0.651   149 N    0.650   137 N    0.648
                           119 N    0.646
   114   6 C    3.902 --   115 C    1.251   148 C    1.251   110 C    1.195
   115   6 C    3.910 --   114 C    1.251   119 N    1.246   116 C    1.191
   116   6 C    3.960 --   117 C    1.632   115 C    1.191   150 H    0.971
   117   6 C    3.958 --   116 C    1.632   118 C    1.184   151 H    0.973
   118   6 C    3.917 --   120 C    1.319   119 N    1.207   117 C    1.184
   119   7 N    3.364 --   115 C    1.246   118 C    1.207   113 Fe   0.646
   120   6 C    3.911 --   127 C    1.321   118 C    1.319   121 C    1.032
   121   6 C    3.986 --   122 C    1.391   126 C    1.391   120 C    1.032
                           124 N    0.106
   122   6 C    3.986 --   123 C    1.441   121 C    1.391   152 H    0.973
                           125 C    0.109
   123   6 C    3.972 --   122 C    1.441   124 N    1.416   153 H    0.972
                           126 C    0.109
   124   7 N    3.030 --   123 C    1.416   125 C    1.416   121 C    0.106
   125   6 C    3.972 --   126 C    1.442   124 N    1.416   154 H    0.972
                           122 C    0.109
   126   6 C    3.986 --   125 C    1.442   121 C    1.391   155 H    0.973
                           123 C    0.109
   127   6 C    3.917 --   120 C    1.321   130 N    1.205   128 C    1.184
   128   6 C    3.958 --   129 C    1.632   127 C    1.184   156 H    0.973
   129   6 C    3.960 --   128 C    1.632   131 C    1.192   157 H    0.968
   130   7 N    3.366 --   131 C    1.247   127 C    1.205   113 Fe   0.651
   131   6 C    3.909 --   132 C    1.248   130 N    1.247   129 C    1.192
   132   6 C    3.903 --   133 C    1.249   131 C    1.248   111 C    1.200
   133   6 C    3.909 --   132 C    1.249   137 N    1.245   134 C    1.192
   134   6 C    3.960 --   135 C    1.632   133 C    1.192   158 H    0.969
   135   6 C    3.958 --   134 C    1.632   136 C    1.184   159 H    0.973
   136   6 C    3.917 --   138 C    1.319   137 N    1.206   135 C    1.184
   137   7 N    3.364 --   133 C    1.245   136 C    1.206   113 Fe   0.648
   138   6 C    3.911 --   145 C    1.320   136 C    1.319   139 C    1.032
   139   6 C    3.986 --   144 C    1.391   140 C    1.391   138 C    1.032
                           142 N    0.106
   140   6 C    3.986 --   141 C    1.442   139 C    1.391   160 H    0.973
                           143 C    0.109
   141   6 C    3.972 --   140 C    1.442   142 N    1.416   161 H    0.972
                           144 C    0.109
   142   7 N    3.030 --   143 C    1.416   141 C    1.416   139 C    0.106
   143   6 C    3.972 --   144 C    1.442   142 N    1.416   162 H    0.972
                           140 C    0.109
   144   6 C    3.986 --   143 C    1.442   139 C    1.391   163 H    0.973
                           141 C    0.109
   145   6 C    3.917 --   138 C    1.320   149 N    1.206   146 C    1.183
   146   6 C    3.958 --   147 C    1.633   145 C    1.183   164 H    0.973
   147   6 C    3.960 --   146 C    1.633   148 C    1.191   165 H    0.971
   148   6 C    3.910 --   114 C    1.251   149 N    1.246   147 C    1.191
   149   7 N    3.366 --   148 C    1.246   145 C    1.206   113 Fe   0.650
   150   1 H    1.003 --   116 C    0.971
   151   1 H    1.004 --   117 C    0.973
   152   1 H    1.004 --   122 C    0.973
   153   1 H    1.013 --   123 C    0.972
   154   1 H    1.013 --   125 C    0.972
   155   1 H    1.004 --   126 C    0.973
   156   1 H    1.004 --   128 C    0.973
   157   1 H    1.005 --   129 C    0.968
   158   1 H    1.005 --   134 C    0.969
   159   1 H    1.004 --   135 C    0.973
   160   1 H    1.004 --   140 C    0.973
   161   1 H    1.013 --   141 C    0.972
   162   1 H    1.013 --   143 C    0.972
   163   1 H    1.004 --   144 C    0.973
   164   1 H    1.004 --   146 C    0.973
   165   1 H    1.003 --   147 C    0.971
 ---------------------------------------------------------------------------

           -------------------------------------------------
          | TOTAL ENERGY             -291.951767992847 Eh   |
          | GRADIENT NORM               0.000372790025 Eh/α |
          | HOMO-LUMO GAP               0.054537823824 eV   |
           -------------------------------------------------

 * finished run on 2022/07/29 at 16:28:36.599
