   * xtb version 6.5.1 (b24c23e) compiled by 'conda@728c89f4b128' on 2022-07-12
          program call               : xtb Cu_PhCHO_C8_2.xyz --gfn 1 --opt -T 48

   ID    Z sym.   atoms
    1   29 Cu     1, 61
    2    6 C      2-6, 8-13, 15-19, 21-26, 28-33, 35-40, 62-66, 68-73, 75-79,
                  81-86, 88-93, 95-100, 121-128
    3    7 N      7, 20, 27, 41, 67, 80, 87, 101
    4    8 O      14, 34, 74, 94
    5    1 H      42-60, 102-120
########################################################################
[WARNING] Please study the warnings concerning your input carefully
-1- prog_main_parseArguments: Unknown option '-T' provided
########################################################################

          :  Hamiltonian                  GFN1-xTB          :
 * total energy  :  -233.6636231 Eh     change        0.5408367E-09 Eh
 * total energy  :  -234.0517504 Eh     change       -0.3881273E+00 Eh
 * total energy  :  -234.1407480 Eh     change       -0.8899757E-01 Eh
 * total energy  :  -234.1712717 Eh     change       -0.3052370E-01 Eh
 * total energy  :  -234.1817672 Eh     change       -0.1049552E-01 Eh
 * total energy  :  -234.1879627 Eh     change       -0.6195500E-02 Eh
 * total energy  :  -234.1924057 Eh     change       -0.4443042E-02 Eh
 * total energy  :  -234.1946934 Eh     change       -0.2287691E-02 Eh
 * total energy  :  -234.1972309 Eh     change       -0.2537445E-02 Eh
 * total energy  :  -234.1987770 Eh     change       -0.1546135E-02 Eh
 * total energy  :  -234.2045871 Eh     change       -0.4080283E-04 Eh
 * total energy  :  -234.2046068 Eh     change       -0.1969530E-04 Eh
 * total energy  :  -234.2046220 Eh     change       -0.1524561E-04 Eh
 * total energy  :  -234.2046525 Eh     change       -0.3043184E-04 Eh
 * total energy  :  -234.2046627 Eh     change       -0.1024742E-04 Eh
 * total energy  :  -234.2046701 Eh     change       -0.7365471E-05 Eh
 * total energy  :  -234.2046804 Eh     change       -0.1028371E-04 Eh
 * total energy  :  -234.2046860 Eh     change       -0.5691432E-05 Eh
 * total energy  :  -234.2046899 Eh     change       -0.3891384E-05 Eh
   *** GEOMETRY OPTIMIZATION CONVERGED AFTER 43 ITERATIONS ***

 final structure:
================
128
 xtb: 6.5.1 (b24c23e)
Cu          13.27231395460982        0.02204310836220       -0.03658890800689
C            9.86647262094357        0.07312282571187       -0.09369925399694
C           10.50573988784057        1.29540154026942        0.04800147704600
C            9.83467067002064        2.55368831787747        0.20844378276606
C           10.79649865387993        3.49960321571619        0.34446749893069
C           12.06509635678353        2.82803288195240        0.25670493982002
N           11.85716664037071        1.49051630149375        0.08279024804636
C           13.31271716976986        3.44664127597242        0.36948728881294
C           13.33091200665288        4.91671354711885        0.56381844400604
C           13.86001465449505        5.46612416209028        1.73562100442374
C           13.86892039046154        6.83482007227397        1.92260799221366
C           13.35498934146480        7.68655429903932        0.93914923372009
C           13.37662732284921        9.14356859321882        1.16164010313426
O           13.81629865437869        9.66282706148573        2.15538507613274
C           12.83065515164381        7.13905034271125       -0.23425078454551
C           12.81632171721274        5.76776553209077       -0.41789951244416
C           14.54376130542400        2.78947650716331        0.31899614391901
C           15.82347754342550        3.43764521762389        0.37691129207909
C           16.76598983675778        2.46738258290585        0.26932776749614
N           14.72728497925106        1.44077003717906        0.16686969203180
C           16.07022197141779        1.22223417526108        0.13961778772193
C           16.70219013915610       -0.02589938016890       -0.00453502099196
C           16.03918665622561       -1.25731090286319       -0.14965816577373
C           16.70289689571583       -2.51512058820620       -0.31812898743800
C           15.73587629650141       -3.46069513424118       -0.42937721121524
C           14.47294735048108       -2.78618481774139       -0.32197885950672
N           14.69098013142859       -1.44358900880115       -0.16154590621352
C           13.22456502737832       -3.40723109655533       -0.40398800286074
C           13.20119947972026       -4.88204694975333       -0.55415170358037
C           12.63135292437719       -5.46717792186233       -1.68851538249972
C           12.60261569147155       -6.84319102570740       -1.82884042386109
C           13.13971424607979       -7.66336844714897       -0.83361666181405
C           13.11565877442738       -9.13206162733399       -0.95643442239585
O           13.56237878961973       -9.88110047867170       -0.12559872793606
C           13.70987555335511       -7.07843982619834        0.30206258041909
C           13.74266797014423       -5.70411463736333        0.43888711437149
C           11.99333499751459       -2.74782326980281       -0.35486994824622
C           10.70746908587931       -3.39101887884179       -0.39214490767126
C            9.77065962889643       -2.41425953248878       -0.31099792569673
C           10.47424314086692       -1.16756460640328       -0.21171521071517
N           11.82028011860889       -1.39951319780540       -0.23489934548699
H            8.78144567087095        0.08734259612529       -0.09784662916086
H            8.76375691513775        2.68123890270703        0.22216080740062
H           10.66539200837409        4.55789627467315        0.50296433934521
H           14.24845004222674        4.80750505142166        2.50426126000156
H           14.27121447843665        7.26864779720967        2.83178570437329
H           12.94771269591637        9.73836411258716        0.32710188476158
H           12.43414107068164        7.79311470281242       -1.00410494900853
H           12.41895629075011        5.34622809481821       -1.33442013569768
H           15.97702607909748        4.50026365052957        0.47265669445725
H           17.83863458167484        2.57618932976763        0.27135813807362
H           17.77248704003659       -2.64697220294726       -0.35137326322165
H           15.86263029983770       -4.51982022709644       -0.58462052362658
H           12.22422385737213       -4.83306743454661       -2.46811976971820
H           12.16225794903823       -7.28845555295820       -2.71518139374715
H           12.64269763241604       -9.50353106442496       -1.89053940045555
H           14.12159434859741       -7.72313579875939        1.07116865598585
H           14.17286359585081       -5.25435953742900        1.32663664401228
H           10.54821712991188       -4.45528216669903       -0.45742804953749
H            8.69684444381272       -2.51529353967659       -0.30838104085470
Cu          31.87786280285478       -0.01989212377104       -0.04004519932366
C           35.28377130987054       -0.05992752651228       -0.10340073118294
C           34.64539971614494       -1.29031110435894       -0.14012593058954
C           35.31734490641247       -2.55810233249639       -0.16388740745808
C           34.35619162633324       -3.51443934043282       -0.16422409429324
C           33.08712850673808       -2.83813388275318       -0.15221704255656
N           33.29412202915587       -1.48936247669061       -0.13226934661875
C           31.83999871036742       -3.46734347178987       -0.12633065637019
C           31.82270423119969       -4.95016342127514       -0.14258168260242
C           31.29817251209493       -5.66042789970354        0.94151241245199
C           31.28973435991906       -7.04181270122490        0.93245441257390
C           31.79933515038531       -7.74519879628928       -0.16403504573930
C           31.77755790154148       -9.21901870692755       -0.15062874874077
O           31.34280641596442       -9.87409964875273        0.76163106874992
C           32.31928286879013       -7.03656851236066       -1.24988816387540
C           32.33333769607874       -5.65308808939762       -1.23710040963397
C           30.60852954446435       -2.81060691288303       -0.08063300408119
C           29.32931230407575       -3.46158628871041       -0.11280387644589
C           28.38599367676858       -2.48664998370904       -0.08112234772343
N           30.42389211023075       -1.45414447343676       -0.04037370078409
C           29.08072945864825       -1.23508479606237       -0.03488253190690
C           28.44790756438388        0.02044066084624       -0.00177459703711
C           29.11008400440965        1.26055901555570        0.02760961348633
C           28.44541999260357        2.52906721043865        0.03652426245530
C           29.41171231700918        3.48158953069440        0.06116495407264
C           30.67508324192524        2.79958464154135        0.07506898828905
N           30.45808301401136        1.44760704879162        0.04409924924739
C           31.92305460856271        3.42674560977003        0.08532638255066
C           31.94564980276269        4.90786634587147        0.14662714256515
C           32.52001722719243        5.64845741217255       -0.89048418089261
C           32.54906377091238        7.03039066567611       -0.83322634767517
C           32.00764040106707        7.70060998186455        0.26646836561282
C           32.03293331543995        9.17177139894619        0.35487233596459
O           31.58244458181156        9.79499364117701        1.28191480151006
C           31.43242960725484        6.96008377187769        1.30461711484900
C           31.39942510090548        5.58029366136074        1.24416851311441
C           33.15480893574139        2.76774731111379        0.04296937685936
C           34.44015023049538        3.41037980951049        0.10151724527633
C           35.37769019900916        2.43272793870906        0.04245258285672
C           34.67505267097618        1.18433805227408       -0.04066822327014
N           33.32883980166854        1.41632555525880       -0.03215306244856
H           36.36880384256006       -0.07254503991674       -0.10941792216451
H           36.38835038616500       -2.68551228602229       -0.17040358441562
H           34.48806718268876       -4.58443621206729       -0.16036766963258
H           30.91288206743812       -5.11765308901959        1.79731787356307
H           30.89091914253355       -7.60040482498066        1.77244551795899
H           32.20355403338998       -9.68951522574337       -1.06272302783052
H           32.71250576575203       -7.57464415156104       -2.10635737814893
H           32.72733613024796       -5.10561349150619       -2.08601032291982
H           29.17667612542908       -4.52722075522237       -0.16761941138363
H           27.31340745143307       -2.59552627929659       -0.09295413810264
H           27.37577008211890        2.66349302821891        0.02018592501558
H           29.28412991469865        4.55192442120255        0.05600157174147
H           32.93057074086821        5.13170777062315       -1.75072636473594
H           32.99327858008440        7.59723710089705       -1.64508861948031
H           32.50973755296318        9.67228958557792       -0.51500304798150
H           31.01716566260209        7.48879304623907        2.15589701057244
H           30.96541140151470        5.00886760264167        2.05692463708346
H           34.59853048311713        4.47299720554711        0.19112964076557
H           36.45140344098822        2.53303115371794        0.06166232221716
C           18.10807414438861       -0.03834840808044       -0.00881190327214
C           19.33250586403910       -0.03336937004330       -0.01153170431388
C           20.67553270908073       -0.02334075977253       -0.01187397412730
C           21.90596531786962       -0.00487812279308       -0.01201690705423
C           23.24413818706379        0.01121090596162       -0.00848445626028
C           24.47461222083525        0.02553437164230       -0.00815451631042
C           25.81766052967585        0.03197595948853       -0.00568768499353
C           27.04207895668908        0.03333883281746       -0.00411152469347

          :  Hamiltonian                  GFN1-xTB          :
         :: total energy            -234.204689937513 Eh    ::
         :: gradient norm              0.000708544279 Eh/a0 ::
         :: HOMO-LUMO gap              0.000023525551 eV    ::
         :: SCC energy              -237.868205584724 Eh    ::
         :: repulsion energy           3.776012199414 Eh    ::

    * Orbital Energies and Occupations

         #    Occupation            Energy/Eh            Energy/eV
      -------------------------------------------------------------
         1        2.0000           -0.7914196             -21.5356
       ...           ...                  ...                  ...
       202        2.0000           -0.4234426             -11.5225
       203        2.0000           -0.4203112             -11.4373
       204        2.0000           -0.4203085             -11.4372
       205        2.0000           -0.4201303             -11.4323
       206        2.0000           -0.4200964             -11.4314
       207        2.0000           -0.4200911             -11.4313
       208        2.0000           -0.4199802             -11.4282
       209        2.0000           -0.4159506             -11.3186
       210        2.0000           -0.4078379             -11.0978
       211        2.0000           -0.4078374             -11.0978
       212        2.0000           -0.4026606             -10.9570
       213        2.0000           -0.3931556             -10.6983
       214        1.0002           -0.3678411             -10.0095 (HOMO)
       215        0.9998           -0.3678402             -10.0094 (LUMO)
       216                         -0.3498651              -9.5203
       217                         -0.3431885              -9.3386
       218                         -0.3431873              -9.3386
       219                         -0.3398505              -9.2478
       220                         -0.3271618              -8.9025
       221                         -0.3267532              -8.8914
       222                         -0.3218659              -8.7584
       223                         -0.3218530              -8.7581
       224                         -0.3101585              -8.4398
       225                         -0.3084141              -8.3924
       ...                                ...                  ...
       446                          1.5974205              43.4680
      -------------------------------------------------------------
                  HL-Gap            0.0000009 Eh            0.0000 eV

Wiberg/Mayer (AO) data.
largest (>0.10) Wiberg bond orders for each atom

     #   Z sym  total        # sym  WBO       # sym  WBO       # sym  WBO
 ---------------------------------------------------------------------------
     1  29 Cu   2.182 --    41 N    0.504     7 N    0.504    20 N    0.502
                            27 N    0.501
     2   6 C    3.930 --    40 C    1.362     3 C    1.362    42 H    0.971
     3   6 C    3.916 --     2 C    1.362     7 N    1.229     4 C    1.170
     4   6 C    3.955 --     5 C    1.657     3 C    1.170    43 H    0.975
     5   6 C    3.958 --     4 C    1.657     6 C    1.171    44 H    0.973
     6   6 C    3.913 --     8 C    1.317     7 N    1.240     5 C    1.171
     7   7 N    3.243 --     6 C    1.240     3 C    1.229     1 Cu   0.504
     8   6 C    3.933 --    17 C    1.325     6 C    1.317     9 C    1.030
     9   6 C    3.986 --    16 C    1.384    10 C    1.381     8 C    1.030
    10   6 C    3.987 --    11 C    1.471     9 C    1.381    45 H    0.972
    11   6 C    3.988 --    10 C    1.471    12 C    1.370    46 H    0.968
                            16 C    0.100
    12   6 C    3.984 --    15 C    1.378    11 C    1.370    13 C    1.050
    13   6 C    3.864 --    14 O    1.808    12 C    1.050    47 H    0.942
    14   8 O    2.004 --    13 C    1.808
    15   6 C    3.993 --    16 C    1.465    12 C    1.378    48 H    0.971
    16   6 C    3.988 --    15 C    1.465     9 C    1.384    49 H    0.972
                            11 C    0.100
    17   6 C    3.907 --     8 C    1.325    20 N    1.223    18 C    1.178
    18   6 C    3.954 --    19 C    1.644    17 C    1.178    50 H    0.973
    19   6 C    3.956 --    18 C    1.644    21 C    1.186    51 H    0.974
    20   7 N    3.248 --    21 C    1.256    17 C    1.223     1 Cu   0.502
    21   6 C    3.895 --    22 C    1.259    20 N    1.256    19 C    1.186
    22   6 C    3.940 --    23 C    1.260    21 C    1.259   121 C    1.189
    23   6 C    3.895 --    22 C    1.260    27 N    1.256    24 C    1.186
    24   6 C    3.956 --    25 C    1.644    23 C    1.186    52 H    0.974
    25   6 C    3.954 --    24 C    1.644    26 C    1.178    53 H    0.973
    26   6 C    3.907 --    28 C    1.324    27 N    1.223    25 C    1.178
    27   7 N    3.247 --    23 C    1.256    26 C    1.223     1 Cu   0.501
    28   6 C    3.933 --    26 C    1.324    37 C    1.317    29 C    1.032
    29   6 C    3.986 --    30 C    1.383    36 C    1.381    28 C    1.032
    30   6 C    3.987 --    31 C    1.466    29 C    1.383    54 H    0.972
                            35 C    0.100
    31   6 C    3.993 --    30 C    1.466    32 C    1.378    55 H    0.971
    32   6 C    3.983 --    31 C    1.378    35 C    1.369    33 C    1.050
    33   6 C    3.864 --    34 O    1.807    32 C    1.050    56 H    0.942
    34   8 O    2.003 --    33 C    1.807
    35   6 C    3.988 --    36 C    1.471    32 C    1.369    57 H    0.968
                            30 C    0.100
    36   6 C    3.987 --    35 C    1.471    29 C    1.381    58 H    0.972
    37   6 C    3.913 --    28 C    1.317    41 N    1.241    38 C    1.171
    38   6 C    3.958 --    39 C    1.657    37 C    1.171    59 H    0.973
    39   6 C    3.955 --    38 C    1.657    40 C    1.170    60 H    0.975
    40   6 C    3.916 --     2 C    1.362    41 N    1.228    39 C    1.170
    41   7 N    3.243 --    37 C    1.241    40 C    1.228     1 Cu   0.504
    42   1 H    1.001 --     2 C    0.971
    43   1 H    0.997 --     4 C    0.975
    44   1 H    1.004 --     5 C    0.973
    45   1 H    1.004 --    10 C    0.972
    46   1 H    1.005 --    11 C    0.968
    47   1 H    1.010 --    13 C    0.942
    48   1 H    1.000 --    15 C    0.971
    49   1 H    1.004 --    16 C    0.972
    50   1 H    1.004 --    18 C    0.973
    51   1 H    1.002 --    19 C    0.974
    52   1 H    1.001 --    24 C    0.974
    53   1 H    1.004 --    25 C    0.973
    54   1 H    1.004 --    30 C    0.972
    55   1 H    1.000 --    31 C    0.971
    56   1 H    1.010 --    33 C    0.942
    57   1 H    1.005 --    35 C    0.968
    58   1 H    1.004 --    36 C    0.972
    59   1 H    1.004 --    38 C    0.973
    60   1 H    0.997 --    39 C    0.975
    61  29 Cu   2.182 --   101 N    0.504    67 N    0.504    80 N    0.502
                            87 N    0.501
    62   6 C    3.930 --   100 C    1.362    63 C    1.362   102 H    0.971
    63   6 C    3.916 --    62 C    1.362    67 N    1.229    64 C    1.170
    64   6 C    3.955 --    65 C    1.657    63 C    1.170   103 H    0.975
    65   6 C    3.958 --    64 C    1.657    66 C    1.171   104 H    0.973
    66   6 C    3.913 --    68 C    1.318    67 N    1.240    65 C    1.171
    67   7 N    3.243 --    66 C    1.240    63 C    1.229    61 Cu   0.504
    68   6 C    3.933 --    77 C    1.325    66 C    1.318    69 C    1.030
    69   6 C    3.986 --    76 C    1.384    70 C    1.381    68 C    1.030
    70   6 C    3.988 --    71 C    1.471    69 C    1.381   105 H    0.972
    71   6 C    3.988 --    70 C    1.471    72 C    1.370   106 H    0.968
                            76 C    0.100
    72   6 C    3.984 --    75 C    1.378    71 C    1.370    73 C    1.050
    73   6 C    3.864 --    74 O    1.808    72 C    1.050   107 H    0.942
    74   8 O    2.004 --    73 C    1.808
    75   6 C    3.993 --    76 C    1.465    72 C    1.378   108 H    0.971
    76   6 C    3.988 --    75 C    1.465    69 C    1.384   109 H    0.972
                            71 C    0.100
    77   6 C    3.907 --    68 C    1.325    80 N    1.223    78 C    1.178
    78   6 C    3.954 --    79 C    1.644    77 C    1.178   110 H    0.973
    79   6 C    3.956 --    78 C    1.644    81 C    1.186   111 H    0.974
    80   7 N    3.248 --    81 C    1.256    77 C    1.223    61 Cu   0.502
    81   6 C    3.895 --    82 C    1.259    80 N    1.256    79 C    1.186
    82   6 C    3.940 --    83 C    1.260    81 C    1.259   128 C    1.189
    83   6 C    3.895 --    82 C    1.260    87 N    1.256    84 C    1.186
    84   6 C    3.956 --    85 C    1.643    83 C    1.186   112 H    0.974
    85   6 C    3.954 --    84 C    1.643    86 C    1.178   113 H    0.973
    86   6 C    3.907 --    88 C    1.324    87 N    1.223    85 C    1.178
    87   7 N    3.247 --    83 C    1.256    86 C    1.223    61 Cu   0.501
    88   6 C    3.933 --    86 C    1.324    97 C    1.317    89 C    1.032
    89   6 C    3.986 --    90 C    1.383    96 C    1.381    88 C    1.032
    90   6 C    3.987 --    91 C    1.466    89 C    1.383   114 H    0.972
                            95 C    0.100
    91   6 C    3.993 --    90 C    1.466    92 C    1.378   115 H    0.971
    92   6 C    3.983 --    91 C    1.378    95 C    1.369    93 C    1.050
    93   6 C    3.864 --    94 O    1.807    92 C    1.050   116 H    0.942
    94   8 O    2.003 --    93 C    1.807
    95   6 C    3.988 --    96 C    1.471    92 C    1.369   117 H    0.968
                            90 C    0.100
    96   6 C    3.987 --    95 C    1.471    89 C    1.381   118 H    0.972
    97   6 C    3.913 --    88 C    1.317   101 N    1.241    98 C    1.171
    98   6 C    3.958 --    99 C    1.657    97 C    1.171   119 H    0.973
    99   6 C    3.955 --    98 C    1.657   100 C    1.170   120 H    0.975
   100   6 C    3.916 --    62 C    1.362   101 N    1.228    99 C    1.170
   101   7 N    3.243 --    97 C    1.241   100 C    1.228    61 Cu   0.504
   102   1 H    1.001 --    62 C    0.971
   103   1 H    0.997 --    64 C    0.975
   104   1 H    1.004 --    65 C    0.973
   105   1 H    1.004 --    70 C    0.972
   106   1 H    1.005 --    71 C    0.968
   107   1 H    1.010 --    73 C    0.942
   108   1 H    1.000 --    75 C    0.971
   109   1 H    1.004 --    76 C    0.972
   110   1 H    1.004 --    78 C    0.973
   111   1 H    1.002 --    79 C    0.974
   112   1 H    1.001 --    84 C    0.974
   113   1 H    1.004 --    85 C    0.973
   114   1 H    1.004 --    90 C    0.972
   115   1 H    1.000 --    91 C    0.971
   116   1 H    1.010 --    93 C    0.942
   117   1 H    1.005 --    95 C    0.968
   118   1 H    1.004 --    96 C    0.972
   119   1 H    1.004 --    98 C    0.973
   120   1 H    0.997 --    99 C    0.975
   121   6 C    3.878 --   122 C    2.443    22 C    1.189   124 C    0.187
   122   6 C    3.936 --   121 C    2.443   123 C    1.342
   123   6 C    3.894 --   124 C    2.339   122 C    1.342   126 C    0.183
   124   6 C    3.927 --   123 C    2.339   125 C    1.367   121 C    0.187
   125   6 C    3.927 --   126 C    2.339   124 C    1.367   128 C    0.187
   126   6 C    3.894 --   125 C    2.339   127 C    1.342   123 C    0.183
   127   6 C    3.936 --   128 C    2.443   126 C    1.342
   128   6 C    3.878 --   127 C    2.443    82 C    1.189   125 C    0.187
 ---------------------------------------------------------------------------

           -------------------------------------------------
          | TOTAL ENERGY             -234.204689937513 Eh   |
          | GRADIENT NORM               0.000708544279 Eh/α |
          | HOMO-LUMO GAP               0.000023525551 eV   |
           -------------------------------------------------

 * finished run on 2022/07/30 at 06:32:14.596
