   * xtb version 6.5.1 (b24c23e) compiled by 'conda@728c89f4b128' on 2022-07-12
          program call               : xtb Fe_H_C8_3.xyz --gfn 1 --opt -T 48

   ID    Z sym.   atoms
    1   26 Fe     1, 37, 89
    2    6 C      2-6, 8-11, 13-18, 20-24, 38-42, 44-47, 49-54, 56-60, 73-88,
                  90-94, 96-99, 101-106, 108-112
    3    7 N      7, 12, 19, 25, 43, 48, 55, 61, 95, 100, 107, 113
    4    1 H      26-36, 62-72, 114-123

          :  Hamiltonian                  GFN1-xTB          :
 * total energy  :  -221.8800430 Eh     change       -0.1183500E-07 Eh
 * total energy  :  -223.8110168 Eh     change       -0.1930974E+01 Eh
 * total energy  :  -224.1193138 Eh     change       -0.3082970E+00 Eh
 * total energy  :  -224.2468729 Eh     change       -0.1275591E+00 Eh
 * total energy  :  -224.3242970 Eh     change       -0.7742413E-01 Eh
 * total energy  :  -224.3778344 Eh     change       -0.5353737E-01 Eh
 * total energy  :  -224.4290026 Eh     change       -0.5116826E-01 Eh
 * total energy  :  -224.4898624 Eh     change       -0.6085980E-01 Eh
 * total energy  :  -224.5550379 Eh     change       -0.6517548E-01 Eh
 * total energy  :  -224.6179344 Eh     change       -0.6289647E-01 Eh
 * total energy  :  -224.8031258 Eh     change       -0.4385578E-04 Eh
 * total energy  :  -224.8031370 Eh     change       -0.1124591E-04 Eh
 * total energy  :  -224.8031704 Eh     change       -0.3339923E-04 Eh
 * total energy  :  -224.8031925 Eh     change       -0.2207437E-04 Eh
 * total energy  :  -224.8032160 Eh     change       -0.2347410E-04 Eh
 * total energy  :  -224.8032309 Eh     change       -0.1492115E-04 Eh
 * total energy  :  -224.8032423 Eh     change       -0.1140604E-04 Eh
 * total energy  :  -224.8032531 Eh     change       -0.1082155E-04 Eh
 * total energy  :  -224.8032572 Eh     change       -0.4111718E-05 Eh
   *** GEOMETRY OPTIMIZATION CONVERGED AFTER 58 ITERATIONS ***

 final structure:
================
123
 xtb: 6.5.1 (b24c23e)
Fe          11.04940795977044       -0.01616814835298       -0.01819331429126
C            7.63715409973039       -0.05091623035349       -0.03219839325084
C            8.29728169637248       -0.90352458422623       -0.89321491200320
C            7.63174905075347       -1.80123219790555       -1.79164555114601
C            8.59992151894977       -2.46532645121415       -2.46552263375084
C            9.85396834948148       -1.97187768755054       -1.97649818225654
N            9.65638020472448       -1.01762178360571       -1.01631933959067
C           11.08087455049252       -2.41715665817562       -2.42817146272726
C           12.29354349544261       -1.95438434423781       -1.96604977849849
C           13.55783200822614       -2.42893072670565       -2.44295220538838
C           14.50968497783205       -1.74828884189669       -1.76089923995409
N           12.47299344477919       -0.99206176113598       -1.00129610587729
C           13.82248692424906       -0.86142143962245       -0.87158917777361
C           14.48144309872282        0.01370372878664        0.00102888236869
C           13.79788953722798        0.87905941518200        0.86417762995547
C           14.45962344347663        1.77965664957649        1.75894207991387
C           13.48849332677041        2.44654795487713        2.42731901856636
C           12.23800153509288        1.94929228004456        1.93723114681138
N           12.44492652672479        0.98765328852280        0.97736648412260
C           11.01230243265985        2.39088985976344        2.38561433046456
C            9.79846839132513        1.92012510878483        1.92453620851598
C            8.53063301224845        2.38825551152964        2.40283854146519
C            7.58176191300675        1.70160548119507        1.72413334046584
C            8.27278195465167        0.81623319267608        0.83274020612196
N            9.62820783024269        0.95946029713195        0.96548781328177
H            6.55308918922948       -0.06253255029167       -0.03601982351635
H            6.56071898117384       -1.89429835463451       -1.87864521198842
H            8.49744067395649       -3.22277151936069       -3.22652602752569
H           11.09047433419838       -3.18230011799637       -3.19635331758031
H           13.68016463136935       -3.18550284706119       -3.20165662491255
H           15.58224820598573       -1.82573559910709       -1.83950912974296
H           15.52979350774772        1.87511111503015        1.84974092933871
H           13.58911703346585        3.20722969917953        3.18511426669576
H           10.99991881795855        3.15807366783935        3.15172159653066
H            8.40643579058519        3.14539088958506        3.16090996210370
H            6.50838338418535        1.77194713130411        1.80318957706712
Fe          48.25224339855740        0.00690224380425       -0.00583719948843
C           51.66430296288544        0.04451478005035       -0.04155571663474
C           51.00228006875471        1.25422201358955       -0.08856255734174
C           51.66578963150496        2.52396996401205       -0.14736889108486
C           50.69663448856374        3.46900865361598       -0.15714505159948
C           49.44364353045461        2.77413967708063       -0.10760167256179
N           49.64311499235648        1.42099364083184       -0.06940721811134
C           48.21647570090275        3.40725518301544       -0.09802282310978
C           47.00482435013209        2.75190004082851       -0.06380567666209
C           45.73970636698720        3.42301745854275       -0.06447325447493
C           44.78902572477190        2.45847184954688       -0.04558548710757
N           46.82725938875141        1.38936184998866       -0.03950481007038
C           45.47749635827817        1.20331603096282       -0.03157245132195
C           44.82077059520105       -0.03291863130427       -0.02565172399967
C           45.50570097411350       -1.25337797467474       -0.00142539161852
C           44.84613413885220       -2.52372774456442        0.02562209418280
C           45.81826772755260       -3.46519462301302        0.08166202052112
C           47.06755984309294       -2.76501373411444        0.08421257491823
N           46.85915125373364       -1.40777977216398        0.02917035532649
C           48.29375220548661       -3.39161005105475        0.13591951546241
C           49.50641228026314       -2.73130929821197        0.11888538724882
C           50.77526535876003       -3.39764797913692        0.15526903149749
C           51.72282361767722       -2.43262412430962        0.09773414731426
C           51.03027869746060       -1.17891089668034        0.03049927388055
N           49.67507824124760       -1.37531873969900        0.04696340062207
H           52.74826332500009        0.05631687813331       -0.05542899526530
H           52.73643645376672        2.65191241744730       -0.17401973801146
H           50.79778216194391        4.54220355247511       -0.19448780150877
H           48.20526920645692        4.49114954857926       -0.12352982741529
H           45.61603569218412        4.49423130452185       -0.08000434881165
H           43.71632456957491        2.56757749095013       -0.04220162856050
H           43.77638213157058       -2.65767816041570        0.00725883833392
H           45.71903475086910       -4.53845335007831        0.11797640562294
H           48.30719516283690       -4.47463119041953        0.18581718749182
H           50.90096689497994       -4.46726271335916        0.21439933625134
H           52.79635875771962       -2.53691294671773        0.10017551154425
C           15.88147688730317        0.02304376174383        0.00945470118725
C           17.10789128495815        0.02642717880707        0.01260719650248
C           18.44688379698434        0.02794164479009        0.01511961791403
C           19.67975201141368        0.02590893813711        0.01390631215344
C           21.01372190853288        0.02230515775849        0.01248832494126
C           22.24671707511613        0.01735829934394        0.00834876944105
C           23.58529459306257        0.01087746590471        0.00492720231015
C           24.81203718270585        0.00292317106955       -0.00013135212182
C           34.48833055842422       -0.06217135952720       -0.03142646100844
C           35.71462910110339       -0.06559315314715       -0.03847566744705
C           37.05410350546394       -0.06790619690024       -0.04268675915801
C           38.28656895912104       -0.06787185351270       -0.04586296731135
C           39.62149832826173       -0.06657650176204       -0.04682324965687
C           40.85377221363659       -0.06306925275863       -0.04459229647554
C           42.19371500222469       -0.05729471974053       -0.04023066588046
C           43.41959887356737       -0.04811262060108       -0.03464031773743
Fe          29.64980533097981       -0.03318857209702       -0.01147229431453
C           26.21094038156955       -0.00710372231527       -0.00330783457656
C           26.89235653105359        0.90697102841746        0.81131626699854
C           26.22813437078793        1.85576875340922        1.65198882196355
C           27.19823633588672        2.56761405891752        2.27489699566063
C           28.44835830787576        2.04851602047376        1.80939437704288
N           28.24469713890431        1.02773934506710        0.91366197858850
C           29.67442679802027        2.53256672036845        2.21465562262520
C           30.89119993636515        2.05149566147341        1.77788178885824
C           32.15118706278372        2.57611642343035        2.20918694620329
C           33.10743197072301        1.85350916624573        1.57731092038247
N           31.07480118902636        1.02009776492197        0.89044423623686
C           32.42504119826599        0.89228261303492        0.76579907661335
C           33.08842676572041       -0.05496414217257       -0.02474872908510
C           32.40727001067268       -0.99604901704627       -0.80741636303074
C           33.07123721106968       -1.96864911834682       -1.62064908271945
C           32.10109734206182       -2.68147867588934       -2.24238619834748
C           30.85119366708565       -2.13938180251051       -1.80338344319810
N           31.05461124548554       -1.10811865194289       -0.92020835430304
C           29.62509552906430       -2.60386478816769       -2.23201622396702
C           28.40855155295723       -2.09978047629745       -1.82254804853962
C           27.14852356573678       -2.59922018727267       -2.28280795624302
C           26.19233340965033       -1.87052676757341       -1.65790318810277
C           26.87482966354786       -0.93170280221436       -0.82063250328751
N           28.22464056981679       -1.07445539729708       -0.92767745352733
H           25.15783030841549        1.95099999666050        1.74061418724655
H           27.09633291052809        3.37289477791675        2.98484450080906
H           29.68265424916265        3.35109443237747        2.92597812212064
H           32.26861985467989        3.39093291902511        2.90574813406546
H           34.17945288212228        1.94707054992176        1.64418288356376
H           34.14146493363521       -2.07580527875513       -1.69548266329411
H           32.20285113883651       -3.49993158304565       -2.93713486055044
H           29.61738578973551       -3.42409746262436       -2.94137374941140
H           27.03106460837770       -3.40367900117933       -2.99128175266733
H           25.12032912144022       -1.94822182055117       -1.74293394484381

          :  Hamiltonian                  GFN1-xTB          :
         :: total energy            -224.803257248721 Eh    ::
         :: gradient norm              0.000368543594 Eh/a0 ::
         :: HOMO-LUMO gap              0.061372815748 eV    ::
         :: SCC energy              -228.711591781279 Eh    ::
         :: repulsion energy           4.012720090057 Eh    ::

    * Orbital Energies and Occupations

         #    Occupation            Energy/Eh            Energy/eV
      -------------------------------------------------------------
         1        2.0000           -0.7746667             -21.0798
       ...           ...                  ...                  ...
       198        2.0000           -0.3990096             -10.8576
       199        2.0000           -0.3982452             -10.8368
       200        1.9961           -0.3938189             -10.7164
       201        1.9917           -0.3930874             -10.6965
       202        1.9914           -0.3930534             -10.6955
       203        1.9912           -0.3930303             -10.6949
       204        1.9664           -0.3917515             -10.6601
       205        1.9465           -0.3912981             -10.6478
       206        1.9435           -0.3912461             -10.6463
       207        1.9375           -0.3911462             -10.6436
       208        1.9304           -0.3910407             -10.6408
       209        1.9230           -0.3909419             -10.6381
       210        1.3898           -0.3886662             -10.5761 (HOMO)
       211        0.3499           -0.3864108             -10.5148 (LUMO)
       212        0.3228           -0.3863187             -10.5123
       213        0.3198           -0.3863081             -10.5120
       214                         -0.3479728              -9.4688
       215                         -0.3378672              -9.1938
       216                         -0.3332611              -9.0685
       217                         -0.3326368              -9.0515
       218                         -0.3294942              -8.9660
       219                         -0.3287278              -8.9451
       220                         -0.3146958              -8.5633
       221                         -0.3099028              -8.4329
       ...                                ...                  ...
       443                          1.5967681              43.4503
      -------------------------------------------------------------
                  HL-Gap            0.0022554 Eh            0.0614 eV

Wiberg/Mayer (AO) data.
largest (>0.10) Wiberg bond orders for each atom

     #   Z sym  total        # sym  WBO       # sym  WBO       # sym  WBO
 ---------------------------------------------------------------------------
     1  26 Fe   3.102 --    25 N    0.669     7 N    0.669    12 N    0.662
                            19 N    0.662
     2   6 C    3.923 --     3 C    1.364    24 C    1.364    26 H    0.971
     3   6 C    3.924 --     2 C    1.364     7 N    1.213     4 C    1.169
     4   6 C    3.958 --     5 C    1.655     3 C    1.169    27 H    0.975
     5   6 C    3.961 --     4 C    1.655     6 C    1.170    28 H    0.975
     6   6 C    3.920 --     8 C    1.354     7 N    1.219     5 C    1.170
     7   7 N    3.385 --     6 C    1.219     3 C    1.213     1 Fe   0.669
     8   6 C    3.929 --     9 C    1.378     6 C    1.354    29 H    0.970
     9   6 C    3.917 --     8 C    1.378    12 N    1.193    10 C    1.173
    10   6 C    3.955 --    11 C    1.645     9 C    1.173    30 H    0.975
    11   6 C    3.959 --    10 C    1.645    13 C    1.183    31 H    0.973
    12   7 N    3.384 --    13 C    1.251     9 C    1.193     1 Fe   0.662
    13   6 C    3.902 --    12 N    1.251    14 C    1.250    11 C    1.183
    14   6 C    3.925 --    15 C    1.251    13 C    1.250    73 C    1.205
    15   6 C    3.902 --    19 N    1.251    14 C    1.251    16 C    1.183
    16   6 C    3.959 --    17 C    1.645    15 C    1.183    32 H    0.973
    17   6 C    3.955 --    16 C    1.645    18 C    1.173    33 H    0.975
    18   6 C    3.917 --    20 C    1.377    19 N    1.193    17 C    1.173
    19   7 N    3.384 --    15 C    1.251    18 C    1.193     1 Fe   0.662
    20   6 C    3.929 --    18 C    1.377    21 C    1.354    34 H    0.970
    21   6 C    3.920 --    20 C    1.354    25 N    1.219    22 C    1.170
    22   6 C    3.961 --    23 C    1.655    21 C    1.170    35 H    0.975
    23   6 C    3.958 --    22 C    1.655    24 C    1.169    36 H    0.975
    24   6 C    3.924 --     2 C    1.364    25 N    1.213    23 C    1.169
    25   7 N    3.385 --    21 C    1.219    24 C    1.213     1 Fe   0.669
    26   1 H    1.000 --     2 C    0.971
    27   1 H    0.998 --     4 C    0.975
    28   1 H    0.997 --     5 C    0.975
    29   1 H    1.000 --     8 C    0.970
    30   1 H    0.997 --    10 C    0.975
    31   1 H    1.001 --    11 C    0.973
    32   1 H    1.001 --    16 C    0.973
    33   1 H    0.997 --    17 C    0.975
    34   1 H    1.000 --    20 C    0.970
    35   1 H    0.997 --    22 C    0.975
    36   1 H    0.998 --    23 C    0.975
    37  26 Fe   3.109 --    61 N    0.672    43 N    0.672    55 N    0.665
                            48 N    0.665
    38   6 C    3.926 --    39 C    1.365    60 C    1.364    62 H    0.971
    39   6 C    3.924 --    38 C    1.365    43 N    1.213    40 C    1.169
    40   6 C    3.958 --    41 C    1.655    39 C    1.169    63 H    0.975
    41   6 C    3.960 --    40 C    1.655    42 C    1.170    64 H    0.975
    42   6 C    3.920 --    44 C    1.356    43 N    1.217    41 C    1.170
    43   7 N    3.387 --    42 C    1.217    39 C    1.213    37 Fe   0.672
    44   6 C    3.931 --    45 C    1.376    42 C    1.356    65 H    0.970
    45   6 C    3.916 --    44 C    1.376    48 N    1.193    46 C    1.173
    46   6 C    3.955 --    47 C    1.645    45 C    1.173    66 H    0.975
    47   6 C    3.959 --    46 C    1.645    49 C    1.183    67 H    0.973
    48   7 N    3.386 --    49 C    1.248    45 C    1.193    37 Fe   0.665
    49   6 C    3.902 --    50 C    1.254    48 N    1.248    47 C    1.183
    50   6 C    3.929 --    51 C    1.254    49 C    1.254    88 C    1.200
    51   6 C    3.902 --    50 C    1.254    55 N    1.248    52 C    1.183
    52   6 C    3.959 --    53 C    1.645    51 C    1.183    68 H    0.973
    53   6 C    3.955 --    52 C    1.645    54 C    1.173    69 H    0.975
    54   6 C    3.916 --    56 C    1.376    55 N    1.194    53 C    1.173
    55   7 N    3.386 --    51 C    1.248    54 C    1.194    37 Fe   0.665
    56   6 C    3.931 --    54 C    1.376    57 C    1.356    70 H    0.970
    57   6 C    3.920 --    56 C    1.356    61 N    1.217    58 C    1.170
    58   6 C    3.960 --    59 C    1.655    57 C    1.170    71 H    0.975
    59   6 C    3.958 --    58 C    1.655    60 C    1.169    72 H    0.975
    60   6 C    3.924 --    38 C    1.364    61 N    1.213    59 C    1.169
    61   7 N    3.387 --    57 C    1.217    60 C    1.213    37 Fe   0.672
    62   1 H    1.000 --    38 C    0.971
    63   1 H    0.998 --    40 C    0.975
    64   1 H    0.998 --    41 C    0.975
    65   1 H    1.000 --    44 C    0.970
    66   1 H    0.997 --    46 C    0.975
    67   1 H    1.001 --    47 C    0.973
    68   1 H    1.001 --    52 C    0.973
    69   1 H    0.997 --    53 C    0.975
    70   1 H    1.000 --    56 C    0.970
    71   1 H    0.998 --    58 C    0.975
    72   1 H    0.998 --    59 C    0.975
    73   6 C    3.862 --    74 C    2.411    14 C    1.205    76 C    0.182
    74   6 C    3.926 --    73 C    2.411    75 C    1.364
    75   6 C    3.879 --    76 C    2.304    74 C    1.364    78 C    0.177
    76   6 C    3.915 --    75 C    2.304    77 C    1.391    73 C    0.182
    77   6 C    3.913 --    78 C    2.302    76 C    1.391    80 C    0.182
    78   6 C    3.881 --    77 C    2.302    79 C    1.366    75 C    0.177
    79   6 C    3.921 --    80 C    2.406    78 C    1.366
    80   6 C    3.863 --    79 C    2.406    90 C    1.211    77 C    0.182
    81   6 C    3.865 --    82 C    2.413   102 C    1.206    84 C    0.182
    82   6 C    3.922 --    81 C    2.413    83 C    1.361
    83   6 C    3.882 --    84 C    2.309    82 C    1.361    86 C    0.178
    84   6 C    3.913 --    83 C    2.309    85 C    1.385    81 C    0.182
    85   6 C    3.916 --    86 C    2.311    84 C    1.385    88 C    0.183
    86   6 C    3.880 --    85 C    2.311    87 C    1.358    83 C    0.178
    87   6 C    3.928 --    88 C    2.418    86 C    1.358
    88   6 C    3.864 --    87 C    2.418    50 C    1.200    85 C    0.183
    89  26 Fe   3.056 --   100 N    0.652   107 N    0.652   113 N    0.652
                            95 N    0.652
    90   6 C    3.910 --    91 C    1.246   112 C    1.246    80 C    1.211
    91   6 C    3.903 --    95 N    1.254    90 C    1.246    92 C    1.185
    92   6 C    3.958 --    93 C    1.641    91 C    1.185   114 H    0.973
    93   6 C    3.957 --    92 C    1.641    94 C    1.176   115 H    0.975
    94   6 C    3.915 --    96 C    1.367    95 N    1.198    93 C    1.176
    95   7 N    3.373 --    91 C    1.254    94 C    1.198    89 Fe   0.652
    96   6 C    3.921 --    94 C    1.367    97 C    1.365   116 H    0.970
    97   6 C    3.915 --    96 C    1.365   100 N    1.200    98 C    1.177
    98   6 C    3.957 --    99 C    1.641    97 C    1.177   117 H    0.975
    99   6 C    3.959 --    98 C    1.641   101 C    1.185   118 H    0.973
   100   7 N    3.374 --   101 C    1.252    97 C    1.200    89 Fe   0.652
   101   6 C    3.904 --   100 N    1.252   102 C    1.249    99 C    1.185
   102   6 C    3.910 --   103 C    1.249   101 C    1.249    81 C    1.206
   103   6 C    3.904 --   107 N    1.252   102 C    1.249   104 C    1.185
   104   6 C    3.959 --   105 C    1.641   103 C    1.185   119 H    0.973
   105   6 C    3.957 --   104 C    1.641   106 C    1.177   120 H    0.975
   106   6 C    3.915 --   108 C    1.365   107 N    1.200   105 C    1.177
   107   7 N    3.374 --   103 C    1.252   106 C    1.200    89 Fe   0.652
   108   6 C    3.921 --   109 C    1.367   106 C    1.365   121 H    0.970
   109   6 C    3.915 --   108 C    1.367   113 N    1.198   110 C    1.176
   110   6 C    3.957 --   111 C    1.641   109 C    1.176   122 H    0.975
   111   6 C    3.958 --   110 C    1.641   112 C    1.185   123 H    0.973
   112   6 C    3.903 --   113 N    1.254    90 C    1.246   111 C    1.185
   113   7 N    3.373 --   112 C    1.254   109 C    1.198    89 Fe   0.652
   114   1 H    1.001 --    92 C    0.973
   115   1 H    0.997 --    93 C    0.975
   116   1 H    1.000 --    96 C    0.970
   117   1 H    0.997 --    98 C    0.975
   118   1 H    1.001 --    99 C    0.973
   119   1 H    1.001 --   104 C    0.973
   120   1 H    0.997 --   105 C    0.975
   121   1 H    1.000 --   108 C    0.970
   122   1 H    0.997 --   110 C    0.975
   123   1 H    1.001 --   111 C    0.973
 ---------------------------------------------------------------------------

           -------------------------------------------------
          | TOTAL ENERGY             -224.803257248721 Eh   |
          | GRADIENT NORM               0.000368543594 Eh/α |
          | HOMO-LUMO GAP               0.061372815748 eV   |
           -------------------------------------------------

 * finished run on 2022/07/29 at 16:16:48.132
