   * xtb version 6.5.1 (b24c23e) compiled by 'conda@728c89f4b128' on 2022-07-12
          program call               : xtb Co_BSA_C8_2.xyz --gfn 1 --opt -T 48

   ID    Z sym.   atoms
    1   27 Co     1, 65
    2    6 C      2-6, 8-12, 17-21, 23-28, 30-34, 39-44, 66-70, 72-76, 81-85,
                  87-92, 94-98, 103-108, 129-136
    3    7 N      7, 22, 29, 45, 71, 86, 93, 109
    4   16 S      13, 35, 77, 99
    5    8 O      14-16, 36-38, 78-80, 100-102
    6    1 H      46-64, 110-128
########################################################################
[WARNING] Please study the warnings concerning your input carefully
-1- prog_main_parseArguments: Unknown option '-T' provided
########################################################################

          :  Hamiltonian                  GFN1-xTB          :
 * total energy  :  -275.4313575 Eh     change       -0.4891888E-08 Eh
 * total energy  :  -275.6698027 Eh     change       -0.2384452E+00 Eh
 * total energy  :  -275.7652202 Eh     change       -0.9541742E-01 Eh
 * total energy  :  -275.7997188 Eh     change       -0.3449866E-01 Eh
 * total energy  :  -275.8167807 Eh     change       -0.1706187E-01 Eh
 * total energy  :  -275.8269158 Eh     change       -0.1013506E-01 Eh
 * total energy  :  -275.8333058 Eh     change       -0.6390024E-02 Eh
 * total energy  :  -275.8374546 Eh     change       -0.4148817E-02 Eh
 * total energy  :  -275.8408887 Eh     change       -0.3434099E-02 Eh
 * total energy  :  -275.8436767 Eh     change       -0.2787969E-02 Eh
 * total energy  :  -275.8531871 Eh     change       -0.3709625E-05 Eh
 * total energy  :  -275.8531925 Eh     change       -0.5386061E-05 Eh
 * total energy  :  -275.8531907 Eh     change        0.1764069E-05 Eh
 * total energy  :  -275.8531959 Eh     change       -0.5195569E-05 Eh
 * total energy  :  -275.8532015 Eh     change       -0.5550907E-05 Eh
 * total energy  :  -275.8532059 Eh     change       -0.4398744E-05 Eh
 * total energy  :  -275.8532185 Eh     change       -0.1264520E-04 Eh
 * total energy  :  -275.8532236 Eh     change       -0.5110950E-05 Eh
 * total energy  :  -275.8532254 Eh     change       -0.1821721E-05 Eh
   *** GEOMETRY OPTIMIZATION CONVERGED AFTER 68 ITERATIONS ***

 final structure:
================
136
 xtb: 6.5.1 (b24c23e)
Co          14.48538705849604        0.06300870828380        0.05098646793732
C           11.11559796708998        0.16073968292005        0.08521571424650
C           11.76548334493864       -0.41747487488934        1.15453014602660
C           11.09895006893036       -1.00573845811793        2.27644744090410
C           12.05288904483426       -1.27213517175331        3.19929856902506
C           13.30009504618777       -0.83235588912912        2.64458534591253
N           13.12186659500113       -0.37994273678792        1.36247874522044
C           14.49132724986645       -0.75720358449987        3.35447409236498
C           14.49423199166603       -1.09978115163653        4.79438249375160
C           13.68392549167945       -0.39438050947879        5.68785859817053
C           13.68727661744360       -0.70683905575435        7.03716014380173
C           14.50367077511394       -1.73508424126713        7.47955215400757
S           14.51635413601119       -2.13269152497541        9.18702608171765
O           14.10021611638615       -1.01082323805187        9.97602051222891
O           13.31117137216672       -3.22164904917102        9.18143693989749
O           15.72964796808570       -2.80719744341086        9.54347382697153
C           15.31901325221266       -2.45159431696644        6.61863467334637
C           15.31213174313934       -2.12692187434962        5.27219431788411
C           15.67811295984144       -0.36037993131734        2.75523643832836
C           16.91983905205506       -0.19660273214594        3.44945332068870
C           17.87034444093844        0.00962673223934        2.50588707605518
N           15.85856980238336       -0.18446894205656        1.40298138987981
C           17.20590419546259       -0.02043184598216        1.24177767627530
C           17.87502293338823       -0.03846079607180        0.01488279877830
C           17.18316046439493       -0.03279790193990       -1.19935238053069
C           17.82212631304144       -0.10383987849640       -2.47497678495025
C           16.86327090167973        0.12983192234323       -3.40343357877362
C           15.64356672834573        0.35753224456333       -2.68827430192065
N           15.84046079359507        0.18213059400891       -1.33767808058055
C           14.46973316075665        0.81533490103062       -3.26864608045306
C           14.46284129429333        1.15107971990950       -4.71021478552965
C           13.58848165325672        0.49810600858967       -5.58264013425187
C           13.57619075233394        0.81224803955374       -6.93169791619946
C           14.44379726268018        1.78767250384954       -7.39522250788135
S           14.42185676219290        2.20434536213348       -9.09866190270202
O           14.89966111717333        3.54007120736421       -9.30844224236266
O           15.57873321013343        1.18719767256439       -9.61330262607289
O           13.17526646589743        1.82029446241074       -9.68980027450424
C           15.31870326872668        2.45606814285085       -6.55405768737610
C           15.32643135696821        2.13039096453890       -5.20801616612668
C           13.30166991967919        0.97522178238107       -2.53420345586640
C           12.07637924570645        1.50001546318277       -3.06291761428070
C           11.12937438000532        1.31439057075988       -2.11338209549442
C           11.77877865835070        0.68710088352855       -1.00265881672460
N           13.12188354352252        0.54250413562974       -1.24599552408935
H           10.03297941562930        0.20107657033949        0.09936994198736
H           10.03591207051672       -1.17679693531280        2.33431948667687
H           11.93643761345637       -1.72145512006143        4.17218516442762
H           13.06237593355323        0.41497793252919        5.32302987150076
H           13.07242563383087       -0.15896682786233        7.74012851603590
H           13.15014123102469       -3.54765392402377       10.07522956190510
H           15.94879895410557       -3.24555822176939        6.99985292673009
H           15.93461273046180       -2.68179818609056        4.58001844056650
H           17.03794832206345       -0.23527520181199        4.52004811111971
H           18.92963562914031        0.16050963489622        2.63713216795804
H           18.87156740539889       -0.30074976913335       -2.62338951021124
H           16.96246760095305        0.15189309888647       -4.47642755126867
H           12.92498985355978       -0.26931146776923       -5.20139676639028
H           12.90226969546114        0.31300067494332       -7.61646970308836
H           15.89702146180302        1.45962277099907      -10.48260826348301
H           15.97454001112407        3.22219028346948       -6.94818217744595
H           15.99346346461057        2.65067668032489       -4.53063313924104
H           11.96836654989218        1.94815139169950       -4.03730050031301
H           10.08111063056595        1.56473731004668       -2.14642702901222
Co          33.00010899200839        0.07759042122885       -0.02551840848100
C           36.36992664876959        0.17965700121722       -0.02142348597507
C           35.71995724561578        0.03715961066511       -1.22863672818319
C           36.38632870868285       -0.09577324824797       -2.48851651168807
C           35.43231568880338       -0.00260747391548       -3.44444864146831
C           34.18525743102236        0.20192962433701       -2.76647334417170
N           34.36358713384596        0.14909350953557       -1.40792452740979
C           32.99424717346082        0.53491291390258       -3.39832269288488
C           32.99156877041025        0.74875948970286       -4.86289587794711
C           33.80262781488833        1.73397964649401       -5.43211970506685
C           33.79946303598164        1.94269413449701       -6.80129675082858
C           32.98255978264586        1.15150603767731       -7.59262564211631
S           32.96979581434451        1.41417569732471       -9.32599572572240
O           33.38553309541166        2.74859390063313       -9.64345492193671
O           34.17526237375254        0.40093648170196       -9.72410011407709
O           31.75663128742123        0.91927194918910       -9.90684450509657
C           32.16658311544781        0.16791271613126       -7.05777609987721
C           32.17323137503746       -0.02835685449433       -5.68670512035361
C           31.80765799290445        0.68344547568677       -2.69479201154131
C           30.56620960926562        1.09318926919599       -3.27920469379202
C           29.61562637662640        0.93661420511925       -2.32619756142221
N           31.62702993370553        0.34717395262429       -1.37327796703652
C           30.27976671275629        0.44083545247791       -1.16281490504437
C           29.61047099871734       -0.02949872856478       -0.02959608641859
C           30.30222945416399       -0.47298522832241        1.10083202376720
C           29.66315068665579       -1.01001509445621        2.26002229888425
C           30.62191199266402       -1.13567083047846        3.20924226556300
C           31.84170234947589       -0.66010569984841        2.62877742180349
N           31.64494340100052       -0.32447704550508        1.30884661088734
C           33.01557891353567       -0.44925934844843        3.33722613197009
C           33.02213913734050       -0.66928253015453        4.80091011454110
C           33.89649628916415       -1.59799991289449        5.37099682580332
C           33.90845877958769       -1.80387806919742        6.74075250433992
C           33.04047327627064       -1.06858088512096        7.53133189002874
S           33.06262400707446       -1.30990955343979        9.26830280699171
O           32.58535625660814       -0.14575679012079        9.95636218495396
O           31.90554553129671       -2.44495769306818        9.37189157494103
O           34.30919608657317       -1.88546124603298        9.67541121143846
C           32.16547874719904       -0.13715498255563        6.99599010573010
C           32.15813938213395        0.05695320350598        5.62477212990121
C           34.18386031448537       -0.03006898559406        2.71372194121263
C           35.40928376134820        0.26198375172987        3.39880484609987
C           36.35631178747031        0.43981060250616        2.44780097200958
C           35.70680869800111        0.26723686720357        1.18395998912507
N           34.36366067889823        0.04332401401357        1.35676731012217
H           37.45255208054181        0.22221635558313       -0.01973663064067
H           37.44932015081697       -0.23365442724470       -2.60555344873601
H           35.54861844180959       -0.06133030908508       -4.51448817224900
H           34.42456340070764        2.35058570499717       -4.79378288857352
H           34.41481548529384        2.71130747522742       -7.25178465532652
H           34.33596029021589        0.42887111888244      -10.67513818204240
H           31.53645263156060       -0.42838234575754       -7.70562343950467
H           31.55018325292762       -0.79942673311366       -5.24882182293421
H           30.44834487194431        1.45318636936327       -4.28822970533266
H           28.55647351332749        1.12615259229717       -2.39225695921553
H           28.61369398074044       -1.24774618764180        2.32519710230689
H           30.52258147107353       -1.51133596884502        4.21455179422965
H           34.56023600292282       -2.17045271188521        4.73362722992019
H           34.58239802054185       -2.52045009250890        7.19313643977009
H           31.58586781119053       -2.51043008381344       10.28003602125493
H           31.50929372283972        0.42929223749672        7.64480618601529
H           31.49109659195074        0.79039486247730        5.18705146163278
H           35.51739535434321        0.31857666162007        4.46979585013093
H           37.40465410816539        0.65991408649334        2.57091255851823
C           19.27683541542584       -0.06270232545387        0.00237873424110
C           20.50179929704398       -0.08094633265797       -0.00566563624508
C           21.84308534303143       -0.09254745426595       -0.01266871647751
C           23.07450700617363       -0.09983050680379       -0.01744272381477
C           24.41098671218356       -0.09765479200159       -0.02138282539504
C           25.64249483500246       -0.09293265706977       -0.02268430478788
C           26.98375882613554       -0.07739051317488       -0.02588128604707
C           28.20868405665561       -0.05746200119523       -0.02719066755749

          :  Hamiltonian                  GFN1-xTB          :
         :: total energy            -275.853225435339 Eh    ::
         :: gradient norm              0.000424398848 Eh/a0 ::
         :: HOMO-LUMO gap              0.004228790697 eV    ::
         :: SCC energy              -279.643493894535 Eh    ::
         :: repulsion energy           3.912494978300 Eh    ::

    * Orbital Energies and Occupations

         #    Occupation            Energy/Eh            Energy/eV
      -------------------------------------------------------------
         1        2.0000           -1.0368119             -28.2131
       ...           ...                  ...                  ...
       228        2.0000           -0.4354494             -11.8492
       229        2.0000           -0.4264676             -11.6048
       230        2.0000           -0.4144909             -11.2789
       231        2.0000           -0.4144839             -11.2787
       232        2.0000           -0.4136321             -11.2555
       233        2.0000           -0.4136150             -11.2550
       234        2.0000           -0.4123801             -11.2214
       235        1.9998           -0.4100553             -11.1582
       236        1.9998           -0.4100534             -11.1581
       237        1.9997           -0.4098998             -11.1539
       238        1.9997           -0.4098979             -11.1539
       239        1.8600           -0.4039308             -10.9915
       240        1.1112           -0.4016853             -10.9304 (HOMO)
       241        1.0299           -0.4015299             -10.9262 (LUMO)
       242                         -0.3563501              -9.6968
       243                         -0.3478393              -9.4652
       244                         -0.3478288              -9.4649
       245                         -0.3463495              -9.4246
       246                         -0.3234501              -8.8015
       247                         -0.3210742              -8.7369
       248                         -0.3165101              -8.6127
       249                         -0.3115174              -8.4768
       250                         -0.3106234              -8.4525
       251                         -0.3099659              -8.4346
       ...                                ...                  ...
       498                          1.5875405              43.1992
      -------------------------------------------------------------
                  HL-Gap            0.0001554 Eh            0.0042 eV

Wiberg/Mayer (AO) data.
largest (>0.10) Wiberg bond orders for each atom

     #   Z sym  total        # sym  WBO       # sym  WBO       # sym  WBO
 ---------------------------------------------------------------------------
     1  27 Co   3.050 --     7 N    0.642    45 N    0.639    29 N    0.636
                            22 N    0.633
     2   6 C    3.930 --     3 C    1.366    44 C    1.365    46 H    0.969
     3   6 C    3.922 --     2 C    1.366     7 N    1.199     4 C    1.173
     4   6 C    3.960 --     5 C    1.650     3 C    1.173    47 H    0.975
     5   6 C    3.963 --     4 C    1.650     6 C    1.175    48 H    0.973
     6   6 C    3.921 --     8 C    1.319     7 N    1.212     5 C    1.175
     7   7 N    3.346 --     6 C    1.212     3 C    1.199     1 Co   0.642
     8   6 C    3.932 --    19 C    1.328     6 C    1.319     9 C    1.032
     9   6 C    3.986 --    18 C    1.390    10 C    1.389     8 C    1.032
    10   6 C    3.986 --    11 C    1.450     9 C    1.389    49 H    0.971
                            17 C    0.106
    11   6 C    3.989 --    10 C    1.450    12 C    1.407    50 H    0.967
                            18 C    0.106
    12   6 C    3.930 --    17 C    1.407    11 C    1.407    13 S    0.754
    13  16 S    5.265 --    16 O    1.720    14 O    1.719    15 O    1.013
                            12 C    0.754
    14   8 O    2.078 --    13 S    1.719    16 O    0.139
    15   8 O    2.087 --    13 S    1.013    51 H    0.828
    16   8 O    2.079 --    13 S    1.720    14 O    0.139
    17   6 C    3.989 --    18 C    1.450    12 C    1.407    52 H    0.967
                            10 C    0.106
    18   6 C    3.986 --    17 C    1.450     9 C    1.390    53 H    0.971
                            11 C    0.106
    19   6 C    3.917 --     8 C    1.328    22 N    1.195    20 C    1.181
    20   6 C    3.957 --    21 C    1.637    19 C    1.181    54 H    0.973
    21   6 C    3.961 --    20 C    1.637    23 C    1.190    55 H    0.973
    22   7 N    3.349 --    23 C    1.228    19 C    1.195     1 Co   0.633
    23   6 C    3.900 --    24 C    1.258    22 N    1.228    21 C    1.190
    24   6 C    3.936 --    25 C    1.258    23 C    1.258   129 C    1.194
    25   6 C    3.900 --    24 C    1.258    29 N    1.229    26 C    1.190
    26   6 C    3.961 --    27 C    1.637    25 C    1.190    56 H    0.973
    27   6 C    3.958 --    26 C    1.637    28 C    1.181    57 H    0.973
    28   6 C    3.917 --    30 C    1.330    29 N    1.193    27 C    1.181
    29   7 N    3.348 --    25 C    1.229    28 C    1.193     1 Co   0.636
    30   6 C    3.932 --    28 C    1.330    41 C    1.317    31 C    1.032
    31   6 C    3.986 --    32 C    1.390    40 C    1.389    30 C    1.032
    32   6 C    3.986 --    33 C    1.449    31 C    1.390    58 H    0.971
                            39 C    0.106
    33   6 C    3.989 --    32 C    1.449    34 C    1.408    59 H    0.966
                            40 C    0.106
    34   6 C    3.931 --    33 C    1.408    39 C    1.407    35 S    0.754
    35  16 S    5.267 --    38 O    1.727    36 O    1.714    37 O    1.014
                            34 C    0.754
    36   8 O    2.073 --    35 S    1.714    38 O    0.139
    37   8 O    2.089 --    35 S    1.014    60 H    0.828
    38   8 O    2.085 --    35 S    1.727    36 O    0.139
    39   6 C    3.989 --    40 C    1.451    34 C    1.407    61 H    0.967
                            32 C    0.106
    40   6 C    3.986 --    39 C    1.451    31 C    1.389    62 H    0.971
                            33 C    0.106
    41   6 C    3.921 --    30 C    1.317    45 N    1.213    42 C    1.175
    42   6 C    3.963 --    43 C    1.650    41 C    1.175    63 H    0.973
    43   6 C    3.960 --    42 C    1.650    44 C    1.174    64 H    0.975
    44   6 C    3.922 --     2 C    1.365    45 N    1.199    43 C    1.174
    45   7 N    3.347 --    41 C    1.213    44 C    1.199     1 Co   0.639
    46   1 H    0.999 --     2 C    0.969
    47   1 H    0.997 --     4 C    0.975
    48   1 H    1.003 --     5 C    0.973
    49   1 H    1.003 --    10 C    0.971
    50   1 H    0.999 --    11 C    0.967
    51   1 H    0.854 --    15 O    0.828
    52   1 H    0.999 --    17 C    0.967
    53   1 H    1.003 --    18 C    0.971
    54   1 H    1.003 --    20 C    0.973
    55   1 H    1.001 --    21 C    0.973
    56   1 H    1.001 --    26 C    0.973
    57   1 H    1.003 --    27 C    0.973
    58   1 H    1.003 --    32 C    0.971
    59   1 H    0.999 --    33 C    0.966
    60   1 H    0.854 --    37 O    0.828
    61   1 H    0.999 --    39 C    0.967
    62   1 H    1.003 --    40 C    0.971
    63   1 H    1.003 --    42 C    0.973
    64   1 H    0.997 --    43 C    0.975
    65  27 Co   3.050 --    71 N    0.642   109 N    0.639    93 N    0.636
                            86 N    0.633
    66   6 C    3.930 --    67 C    1.366   108 C    1.365   110 H    0.969
    67   6 C    3.922 --    66 C    1.366    71 N    1.199    68 C    1.173
    68   6 C    3.960 --    69 C    1.650    67 C    1.173   111 H    0.975
    69   6 C    3.963 --    68 C    1.650    70 C    1.175   112 H    0.973
    70   6 C    3.921 --    72 C    1.319    71 N    1.212    69 C    1.175
    71   7 N    3.346 --    70 C    1.212    67 C    1.199    65 Co   0.642
    72   6 C    3.932 --    83 C    1.328    70 C    1.319    73 C    1.032
    73   6 C    3.986 --    82 C    1.390    74 C    1.389    72 C    1.032
    74   6 C    3.986 --    75 C    1.450    73 C    1.389   113 H    0.971
                            81 C    0.106
    75   6 C    3.989 --    74 C    1.450    76 C    1.407   114 H    0.967
                            82 C    0.106
    76   6 C    3.930 --    81 C    1.407    75 C    1.407    77 S    0.754
    77  16 S    5.265 --    80 O    1.720    78 O    1.719    79 O    1.013
                            76 C    0.754
    78   8 O    2.078 --    77 S    1.719    80 O    0.139
    79   8 O    2.087 --    77 S    1.013   115 H    0.828
    80   8 O    2.079 --    77 S    1.720    78 O    0.139
    81   6 C    3.989 --    82 C    1.450    76 C    1.407   116 H    0.967
                            74 C    0.106
    82   6 C    3.986 --    81 C    1.450    73 C    1.390   117 H    0.971
                            75 C    0.106
    83   6 C    3.917 --    72 C    1.328    86 N    1.195    84 C    1.181
    84   6 C    3.957 --    85 C    1.637    83 C    1.181   118 H    0.973
    85   6 C    3.961 --    84 C    1.637    87 C    1.190   119 H    0.973
    86   7 N    3.349 --    87 C    1.228    83 C    1.195    65 Co   0.633
    87   6 C    3.900 --    88 C    1.258    86 N    1.228    85 C    1.190
    88   6 C    3.936 --    89 C    1.258    87 C    1.258   136 C    1.194
    89   6 C    3.900 --    88 C    1.258    93 N    1.229    90 C    1.190
    90   6 C    3.961 --    91 C    1.637    89 C    1.190   120 H    0.973
    91   6 C    3.958 --    90 C    1.637    92 C    1.181   121 H    0.973
    92   6 C    3.917 --    94 C    1.330    93 N    1.193    91 C    1.181
    93   7 N    3.348 --    89 C    1.229    92 C    1.193    65 Co   0.636
    94   6 C    3.932 --    92 C    1.330   105 C    1.317    95 C    1.032
    95   6 C    3.986 --    96 C    1.390   104 C    1.389    94 C    1.032
    96   6 C    3.986 --    97 C    1.449    95 C    1.390   122 H    0.971
                           103 C    0.106
    97   6 C    3.989 --    96 C    1.449    98 C    1.408   123 H    0.966
                           104 C    0.106
    98   6 C    3.931 --    97 C    1.408   103 C    1.407    99 S    0.754
    99  16 S    5.267 --   102 O    1.727   100 O    1.714   101 O    1.014
                            98 C    0.754
   100   8 O    2.073 --    99 S    1.714   102 O    0.139
   101   8 O    2.089 --    99 S    1.014   124 H    0.828
   102   8 O    2.085 --    99 S    1.727   100 O    0.139
   103   6 C    3.989 --   104 C    1.451    98 C    1.407   125 H    0.967
                            96 C    0.106
   104   6 C    3.986 --   103 C    1.451    95 C    1.389   126 H    0.971
                            97 C    0.106
   105   6 C    3.921 --    94 C    1.317   109 N    1.213   106 C    1.175
   106   6 C    3.963 --   107 C    1.650   105 C    1.175   127 H    0.973
   107   6 C    3.960 --   106 C    1.650   108 C    1.174   128 H    0.975
   108   6 C    3.922 --    66 C    1.365   109 N    1.199   107 C    1.174
   109   7 N    3.347 --   105 C    1.213   108 C    1.199    65 Co   0.639
   110   1 H    0.999 --    66 C    0.969
   111   1 H    0.997 --    68 C    0.975
   112   1 H    1.003 --    69 C    0.973
   113   1 H    1.003 --    74 C    0.971
   114   1 H    0.999 --    75 C    0.967
   115   1 H    0.854 --    79 O    0.828
   116   1 H    0.999 --    81 C    0.967
   117   1 H    1.003 --    82 C    0.971
   118   1 H    1.002 --    84 C    0.973
   119   1 H    1.000 --    85 C    0.973
   120   1 H    1.001 --    90 C    0.973
   121   1 H    1.003 --    91 C    0.973
   122   1 H    1.003 --    96 C    0.971
   123   1 H    0.999 --    97 C    0.966
   124   1 H    0.854 --   101 O    0.828
   125   1 H    0.999 --   103 C    0.967
   126   1 H    1.003 --   104 C    0.971
   127   1 H    1.003 --   106 C    0.973
   128   1 H    0.997 --   107 C    0.975
   129   6 C    3.870 --   130 C    2.430    24 C    1.194   132 C    0.185
   130   6 C    3.931 --   129 C    2.430   131 C    1.351
   131   6 C    3.886 --   132 C    2.324   130 C    1.351   134 C    0.180
   132   6 C    3.920 --   131 C    2.324   133 C    1.377   129 C    0.185
   133   6 C    3.920 --   134 C    2.324   132 C    1.377   136 C    0.185
   134   6 C    3.886 --   133 C    2.324   135 C    1.351   131 C    0.180
   135   6 C    3.931 --   136 C    2.430   134 C    1.351
   136   6 C    3.870 --   135 C    2.430    88 C    1.194   133 C    0.185
 ---------------------------------------------------------------------------

           -------------------------------------------------
          | TOTAL ENERGY             -275.853225435339 Eh   |
          | GRADIENT NORM               0.000424398848 Eh/α |
          | HOMO-LUMO GAP               0.004228790697 eV   |
           -------------------------------------------------

 * finished run on 2022/07/30 at 07:39:12.042
