   * xtb version 6.5.1 (b24c23e) compiled by 'conda@728c89f4b128' on 2022-07-12
          program call               : xtb Co_H_C2_4.xyz --gfn 1 --opt -T 48

   ID    Z sym.   atoms
    1   27 Co     1, 37, 79, 114
    2    6 C      2-6, 8-11, 13-18, 20-24, 38-42, 44-47, 49-54, 56-60, 73-78,
                  80-84, 86-89, 91-96, 98-102, 115-119, 121-124, 126-131,
                  133-137
    3    7 N      7, 12, 19, 25, 43, 48, 55, 61, 85, 90, 97, 103, 120, 125,
                  132, 138
    4    1 H      26-36, 62-72, 104-113, 139-148

          :  Hamiltonian                  GFN1-xTB          :
 * total energy  :  -268.1558393 Eh     change        0.1870717E-09 Eh
 * total energy  :  -268.8335670 Eh     change       -0.6777277E+00 Eh
 * total energy  :  -269.0584248 Eh     change       -0.2248579E+00 Eh
 * total energy  :  -269.2055614 Eh     change       -0.1471366E+00 Eh
 * total energy  :  -269.2899110 Eh     change       -0.8434959E-01 Eh
 * total energy  :  -269.3346163 Eh     change       -0.4470525E-01 Eh
 * total energy  :  -269.3655850 Eh     change       -0.3096876E-01 Eh
 * total energy  :  -269.3878870 Eh     change       -0.2230197E-01 Eh
 * total energy  :  -269.4040020 Eh     change       -0.1611500E-01 Eh
 * total energy  :  -269.4151052 Eh     change       -0.1110314E-01 Eh
 * total energy  :  -269.4399027 Eh     change       -0.3110048E-04 Eh
 * total energy  :  -269.4399302 Eh     change       -0.2754526E-04 Eh
 * total energy  :  -269.4399537 Eh     change       -0.2344988E-04 Eh
 * total energy  :  -269.4399618 Eh     change       -0.8098595E-05 Eh
 * total energy  :  -269.4399750 Eh     change       -0.1318834E-04 Eh
 * total energy  :  -269.4399824 Eh     change       -0.7449410E-05 Eh
 * total energy  :  -269.4399900 Eh     change       -0.7608207E-05 Eh
 * total energy  :  -269.4399964 Eh     change       -0.6357676E-05 Eh
 * total energy  :  -269.4400012 Eh     change       -0.4755741E-05 Eh
   *** GEOMETRY OPTIMIZATION CONVERGED AFTER 226 ITERATIONS ***

 final structure:
================
148
 xtb: 6.5.1 (b24c23e)
Co          28.83481534904558        0.31766579977789       -0.62212940747761
C           25.49219893135531        0.00132431580269       -0.37520659324692
C           26.16287335257757       -0.82170575245940       -1.25757021911667
C           25.51979309434768       -1.75854954469100       -2.13135995089919
C           26.47654209176041       -2.23595350311537       -2.96292162164257
C           27.71336876537087       -1.63767064195632       -2.55484794079768
N           27.50656147672166       -0.76542815033708       -1.52033331911969
C           28.95074695284266       -2.00416769773032       -3.04876760153232
C           30.13457116880004       -1.63313090371754       -2.44819884761958
C           31.40344495196662       -2.22897927291344       -2.73921469241573
C           32.27629387198755       -1.75254987959621       -1.81815916312132
N           30.24858791992645       -0.75598613110452       -1.39524397433913
C           31.55403820848458       -0.81931399544252       -1.00889503263895
C           32.15617009043497        0.01024605127465       -0.05391948047213
C           31.48634384243665        1.13326180131259        0.44907979557091
C           32.13675214913359        2.20514436837176        1.13825263029647
C           31.20583588680989        3.17254339672271        1.32468960131681
C           29.97362954728265        2.66098033565786        0.80522030678163
N           30.16860646956907        1.41791598669681        0.24971120958614
C           28.74926299602091        3.26741479594239        0.98594010914095
C           27.55116215203089        2.62452553698641        0.73919995349633
C           26.27595641451232        3.10024388308596        1.18813440552862
C           25.37652981490673        2.12666304899635        0.90899590265518
C           26.09294978354105        1.08491844052285        0.23337426104060
N           27.42522100003720        1.39529226860239        0.15058658357462
H           24.42566367819356       -0.13994373103034       -0.24449934015509
H           24.46512603592406       -1.98385417750535       -2.11451159458131
H           26.37970105416968       -2.95065011308755       -3.76489571688808
H           28.98898808915777       -2.70567215491129       -3.87401043131834
H           31.57788992500901       -2.94185382677457       -3.52938096245905
H           33.32555156659678       -1.97459842861298       -1.70765284365166
H           33.18116827181535        2.21633394140899        1.40549756797472
H           31.31780107835106        4.13534785799072        1.79742945051314
H           28.72268519978641        4.24750040681700        1.44786545747610
H           26.11601920320149        4.04756602247664        1.67838466825843
H           24.31611107326550        2.10965376416136        1.10531463550170
Co          60.18161673975729       -0.19704963138862        0.14356021284904
C           63.17192843874586       -0.82417700923723        1.58236189009819
C           62.74043750679658        0.48456443972927        1.51487185737458
C           63.51270527234940        1.60644082599099        1.96211901082872
C           62.84054246899452        2.71840717766011        1.58108253773592
C           61.63148808538615        2.27361467375225        0.95279170979864
N           61.58593531772419        0.90572078421658        0.90784694199460
C           60.60931467135345        3.11690376950079        0.56527651456869
C           59.35861677252873        2.66314355731117        0.20640174105903
C           58.21415886046773        3.51107504654108        0.06295455943185
C           57.14830542486848        2.69524453244847       -0.12056778803438
N           59.00059201082226        1.34340438047537        0.06242144737405
C           57.65193524230218        1.35598066194998       -0.14386823886369
C           56.87246078527891        0.24384640704839       -0.47918050797474
C           57.45926231501391       -0.98946648075970       -0.78230851323253
C           56.75229521462762       -2.07538115220765       -1.38934700385032
C           57.66884511179100       -3.03439882574655       -1.66388117094355
C           58.92334712586275       -2.55525676228610       -1.16803966249191
N           58.78219965379021       -1.29246059845888       -0.64194023087472
C           60.06762633183160       -3.32086713459132       -1.11267936809275
C           61.18771129177625       -2.94719771762853       -0.39706856194103
C           62.27839003878505       -3.82839548870620       -0.10047351166510
C           63.09924368199280       -3.16067528185185        0.74442542709411
C           62.53776532768654       -1.85307897719872        0.91686769647791
N           61.36067178050751       -1.73904132534461        0.22380694473115
H           64.10382200448375       -1.03562772849216        2.09345813858451
H           64.45888532819934        1.53007241686977        2.47429872975202
H           63.10689423765886        3.75338619631233        1.72699014050813
H           60.76539191161992        4.18638405609322        0.64568395374717
H           58.23875438822233        4.58739298135419        0.12534878203537
H           56.11330431766183        2.96198796542798       -0.26133743749342
H           55.69382477887191       -2.07865828409382       -1.59319176376155
H           57.52219959368022       -3.99609832074620       -2.12933046306085
H           60.04998809997239       -4.30565948330225       -1.56484723642223
H           62.36972976550118       -4.83442186973419       -0.47855481863192
H           64.01961331244343       -3.49366833357588        1.19756394855458
C           33.48905829335965       -0.22015406815647        0.31334855519642
C           34.63514168372626       -0.44803169260277        0.66084092270397
C           43.86506720859054       -0.30411118175017        0.53576742476207
C           44.98634797398575       -0.03430780199378        0.13753125001265
C           54.28294642596512        0.53346653853300       -0.78074706603955
C           55.48536236624059        0.39959702625731       -0.63929577317894
Co          39.27420654515728       -0.96824289468208        1.47874518304616
C           35.96733443455616       -0.68448930628650        1.02229069501567
C           36.59226984135898        0.16289562014910        1.95032737232847
C           35.89655995263345        1.10487163723069        2.77062483297691
C           36.79573161158316        1.58302264057900        3.66768188039131
C           38.05377574491155        0.98328042246388        3.34530102489372
N           37.90482808822588        0.09486264395326        2.30900072520876
C           39.26700914874060        1.37766778949207        3.87598280729366
C           40.47624253696709        1.03735255258788        3.30325410665816
C           41.71829588232150        1.69263741788464        3.57701356195466
C           42.60701184224782        1.24083765747968        2.65627255417587
N           40.62851175782748        0.14422935611309        2.27056824541164
C           41.92487163549471        0.25911130352610        1.87137856973085
C           42.55791803720577       -0.58468875936550        0.94444340610097
C           41.94445641921763       -1.77760476205902        0.52794699831964
C           42.64678014980076       -2.87779099415777       -0.05627950913442
C           41.76662083759235       -3.90788345036651       -0.13334759898577
C           40.51070042052223       -3.40932487719792        0.33711498577964
N           40.64652013149316       -2.11080129986081        0.76587836941554
C           39.30642863050959       -4.07110869253488        0.20563909567754
C           38.08743143427679       -3.43380372102950        0.33918467090014
C           36.84243285855489       -3.95834680591154       -0.13081207800078
C           35.93528952439454       -2.95368071672570       -0.03147772861656
C           36.61192796491173       -1.84389630574115        0.56446932534871
N           37.92282840712651       -2.14527662241818        0.78304289859888
H           34.84604411661871        1.33201817977054        2.68687168617140
H           36.64373315995656        2.30332707729561        4.45568070970825
H           39.26486479309770        2.09360674442859        4.68982940043559
H           41.86577368114229        2.42838289702262        4.35150743908658
H           43.64416950158628        1.50942628698543        2.53571096471327
H           43.68985858029172       -2.86396299707992       -0.32873459549593
H           41.92894305316151       -4.90615104517845       -0.50747620268778
H           39.31642657070232       -5.09453210947226       -0.15137830318165
H           36.70408298509250       -4.95522948818909       -0.51809747480849
H           34.89025548545729       -2.96414763055181       -0.29633215543989
Co          49.52509919885951        0.76953399412872       -1.06763450791005
C           46.27866518445171        0.26299464494295       -0.30713106470645
C           46.88750366432442        1.46155927304596        0.09554671448075
C           46.19380977095607        2.52342771293590        0.75653404760578
C           47.05181838384983        3.57196243164075        0.81897141525812
C           48.28778197699258        3.12292161496659        0.25460598356771
N           48.16135028419330        1.83417029429295       -0.20740277987506
C           49.47299184925141        3.82436529824730        0.32390785357347
C           50.70198305632366        3.24945650017881        0.06275130970600
C           51.95535270938986        3.82763260314039        0.43810528079304
C           52.90315477127150        2.88746149391189        0.19782944824192
N           50.88997150096034        1.99169682142725       -0.45292375073027
C           52.23415056105792        1.76659505590843       -0.38587724016514
C           52.89543373762490        0.66695946814881       -0.94732203541418
C           52.22238386704765       -0.22213972926297       -1.79654370175915
C           52.88291503682283       -1.12468587270389       -2.68756101528771
C           51.92354373097287       -1.66904392319064       -3.47690895284753
C           50.67382420341161       -1.14265180509958       -3.02232419867898
N           50.87543713302143       -0.23907715335100       -2.00832863639862
C           49.44067816519649       -1.60765722660304       -3.43561959567986
C           48.26881881599331       -1.31586416864658       -2.76936671501467
C           47.03778534743856       -2.02118933376573       -2.95445469634454
C           46.19131636505251       -1.58335353537471       -1.98941816581744
C           46.88633326371079       -0.56671146859836       -1.26155364930020
N           48.15283128968409       -0.41473152649052       -1.73802759354899
H           45.17018674046530        2.47134780491008        1.09089025837550
H           46.88966198880714        4.55272010902712        1.23689686906846
H           49.45182137273532        4.83291185806244        0.72061716979734
H           52.07359466916081        4.81206770473803        0.86214160790607
H           53.96598431493353        2.94578761236372        0.36825602750223
H           53.94855707848619       -1.28325347362814       -2.72049637992599
H           52.03293362140674       -2.38606371800191       -4.27485263753613
H           49.40846941171174       -2.33171709258681       -4.24161791672224
H           46.87059246716988       -2.77449681749899       -3.70776253330753
H           45.17376306053789       -1.88526654847416       -1.80042207407991

          :  Hamiltonian                  GFN1-xTB          :
         :: total energy            -269.440001146828 Eh    ::
         :: gradient norm              0.000622903940 Eh/a0 ::
         :: HOMO-LUMO gap              0.001449416056 eV    ::
         :: SCC energy              -273.621188967869 Eh    ::
         :: repulsion energy           4.317512999821 Eh    ::

    * Orbital Energies and Occupations

         #    Occupation            Energy/Eh            Energy/eV
      -------------------------------------------------------------
         1        2.0000           -0.7759830             -21.1156
       ...           ...                  ...                  ...
       239        2.0000           -0.3913491             -10.6492
       240        2.0000           -0.3913220             -10.6484
       241        2.0000           -0.3910761             -10.6417
       242        2.0000           -0.3909999             -10.6396
       243        1.9999           -0.3908253             -10.6349
       244        1.9999           -0.3906302             -10.6296
       245        1.9999           -0.3906041             -10.6289
       246        1.9999           -0.3903943             -10.6232
       247        1.9999           -0.3902159             -10.6183
       248        1.9971           -0.3870555             -10.5323
       249        1.7613           -0.3827301             -10.4146
       250        1.2952           -0.3814092             -10.3787
       251        1.1828           -0.3811825             -10.3725 (HOMO)
       252        1.1556           -0.3811292             -10.3711 (LUMO)
       253        0.6084           -0.3800450             -10.3416
       254                         -0.3489013              -9.4941
       255                         -0.3386526              -9.2152
       256                         -0.3322053              -9.0398
       257                         -0.3312225              -9.0130
       258                         -0.3286684              -8.9435
       259                         -0.3286370              -8.9427
       260                         -0.3275276              -8.9125
       261                         -0.3204234              -8.7192
       262                         -0.3047363              -8.2923
       ...                                ...                  ...
       528                          1.3356721              36.3455
      -------------------------------------------------------------
                  HL-Gap            0.0000533 Eh            0.0014 eV

Wiberg/Mayer (AO) data.
largest (>0.10) Wiberg bond orders for each atom

     #   Z sym  total        # sym  WBO       # sym  WBO       # sym  WBO
 ---------------------------------------------------------------------------
     1  27 Co   3.011 --     7 N    0.632    25 N    0.632    12 N    0.626
                            19 N    0.626
     2   6 C    3.925 --    24 C    1.363     3 C    1.362    26 H    0.971
     3   6 C    3.925 --     2 C    1.362     7 N    1.208     4 C    1.170
     4   6 C    3.960 --     5 C    1.653     3 C    1.170    27 H    0.975
     5   6 C    3.962 --     4 C    1.653     6 C    1.171    28 H    0.975
     6   6 C    3.921 --     8 C    1.353     7 N    1.214     5 C    1.171
     7   7 N    3.348 --     6 C    1.214     3 C    1.208     1 Co   0.632
     8   6 C    3.932 --     9 C    1.376     6 C    1.353    29 H    0.971
     9   6 C    3.918 --     8 C    1.376    12 N    1.188    10 C    1.175
    10   6 C    3.957 --    11 C    1.642     9 C    1.175    30 H    0.975
    11   6 C    3.962 --    10 C    1.642    13 C    1.185    31 H    0.971
    12   7 N    3.347 --    13 C    1.246     9 C    1.188     1 Co   0.626
    13   6 C    3.908 --    14 C    1.251    12 N    1.246    11 C    1.185
    14   6 C    3.932 --    13 C    1.251    15 C    1.250    73 C    1.200
    15   6 C    3.908 --    14 C    1.250    19 N    1.247    16 C    1.185
    16   6 C    3.962 --    17 C    1.642    15 C    1.185    32 H    0.970
    17   6 C    3.956 --    16 C    1.642    18 C    1.174    33 H    0.975
    18   6 C    3.918 --    20 C    1.377    19 N    1.187    17 C    1.174
    19   7 N    3.347 --    15 C    1.247    18 C    1.187     1 Co   0.626
    20   6 C    3.932 --    18 C    1.377    21 C    1.352    34 H    0.971
    21   6 C    3.921 --    20 C    1.352    25 N    1.215    22 C    1.172
    22   6 C    3.962 --    23 C    1.653    21 C    1.172    35 H    0.975
    23   6 C    3.960 --    22 C    1.653    24 C    1.170    36 H    0.975
    24   6 C    3.925 --     2 C    1.363    25 N    1.207    23 C    1.170
    25   7 N    3.348 --    21 C    1.215    24 C    1.207     1 Co   0.632
    26   1 H    1.000 --     2 C    0.971
    27   1 H    0.997 --     4 C    0.975
    28   1 H    0.997 --     5 C    0.975
    29   1 H    1.000 --     8 C    0.971
    30   1 H    0.997 --    10 C    0.975
    31   1 H    1.004 --    11 C    0.971
    32   1 H    1.004 --    16 C    0.970
    33   1 H    0.997 --    17 C    0.975
    34   1 H    1.000 --    20 C    0.971
    35   1 H    0.997 --    22 C    0.975
    36   1 H    0.997 --    23 C    0.975
    37  27 Co   3.008 --    43 N    0.633    61 N    0.633    55 N    0.628
                            48 N    0.628
    38   6 C    3.929 --    60 C    1.364    39 C    1.364    62 H    0.971
    39   6 C    3.925 --    38 C    1.364    43 N    1.208    40 C    1.170
    40   6 C    3.960 --    41 C    1.654    39 C    1.170    63 H    0.975
    41   6 C    3.962 --    40 C    1.654    42 C    1.171    64 H    0.975
    42   6 C    3.922 --    44 C    1.356    43 N    1.212    41 C    1.171
    43   7 N    3.349 --    42 C    1.212    39 C    1.208    37 Co   0.633
    44   6 C    3.935 --    45 C    1.375    42 C    1.356    65 H    0.970
    45   6 C    3.918 --    44 C    1.375    48 N    1.190    46 C    1.174
    46   6 C    3.957 --    47 C    1.643    45 C    1.174    66 H    0.975
    47   6 C    3.962 --    46 C    1.643    49 C    1.184    67 H    0.970
    48   7 N    3.349 --    49 C    1.241    45 C    1.190    37 Co   0.628
    49   6 C    3.909 --    50 C    1.259    48 N    1.241    47 C    1.184
    50   6 C    3.936 --    49 C    1.259    51 C    1.258    78 C    1.187
    51   6 C    3.909 --    50 C    1.258    55 N    1.241    52 C    1.184
    52   6 C    3.962 --    53 C    1.643    51 C    1.184    68 H    0.970
    53   6 C    3.957 --    52 C    1.643    54 C    1.174    69 H    0.975
    54   6 C    3.918 --    56 C    1.375    55 N    1.190    53 C    1.174
    55   7 N    3.349 --    51 C    1.241    54 C    1.190    37 Co   0.628
    56   6 C    3.935 --    54 C    1.375    57 C    1.355    70 H    0.970
    57   6 C    3.922 --    56 C    1.355    61 N    1.213    58 C    1.171
    58   6 C    3.962 --    59 C    1.654    57 C    1.171    71 H    0.975
    59   6 C    3.960 --    58 C    1.654    60 C    1.170    72 H    0.975
    60   6 C    3.925 --    38 C    1.364    61 N    1.208    59 C    1.170
    61   7 N    3.349 --    57 C    1.213    60 C    1.208    37 Co   0.633
    62   1 H    1.000 --    38 C    0.971
    63   1 H    0.997 --    40 C    0.975
    64   1 H    0.997 --    41 C    0.975
    65   1 H    1.000 --    44 C    0.970
    66   1 H    0.997 --    46 C    0.975
    67   1 H    1.004 --    47 C    0.970
    68   1 H    1.005 --    52 C    0.970
    69   1 H    0.997 --    53 C    0.975
    70   1 H    1.000 --    56 C    0.970
    71   1 H    0.997 --    58 C    0.975
    72   1 H    0.997 --    59 C    0.975
    73   6 C    3.922 --    74 C    2.544    14 C    1.200
    74   6 C    3.933 --    73 C    2.544    80 C    1.206
    75   6 C    3.928 --    76 C    2.529    92 C    1.216
    76   6 C    3.923 --    75 C    2.529   115 C    1.214
    77   6 C    3.932 --    78 C    2.559   127 C    1.193
    78   6 C    3.923 --    77 C    2.559    50 C    1.187
    79  27 Co   3.076 --    85 N    0.628   103 N    0.627    97 N    0.626
                            90 N    0.626
    80   6 C    3.917 --   102 C    1.245    81 C    1.244    74 C    1.206
    81   6 C    3.909 --    85 N    1.246    80 C    1.244    82 C    1.190
    82   6 C    3.961 --    83 C    1.634    81 C    1.190   104 H    0.971
    83   6 C    3.958 --    82 C    1.634    84 C    1.181   105 H    0.975
    84   6 C    3.916 --    86 C    1.360    85 N    1.194    83 C    1.181
    85   7 N    3.344 --    81 C    1.246    84 C    1.194    79 Co   0.628
    86   6 C    3.929 --    87 C    1.366    84 C    1.360   106 H    0.971
    87   6 C    3.917 --    86 C    1.366    90 N    1.190    88 C    1.180
    88   6 C    3.959 --    89 C    1.635    87 C    1.180   107 H    0.975
    89   6 C    3.960 --    88 C    1.635    91 C    1.189   108 H    0.971
    90   7 N    3.342 --    91 C    1.251    87 C    1.190    79 Co   0.626
    91   6 C    3.909 --    90 N    1.251    92 C    1.240    89 C    1.189
    92   6 C    3.915 --    91 C    1.240    93 C    1.238    75 C    1.216
    93   6 C    3.909 --    97 N    1.253    92 C    1.238    94 C    1.189
    94   6 C    3.960 --    95 C    1.635    93 C    1.189   109 H    0.971
    95   6 C    3.958 --    94 C    1.635    96 C    1.179   110 H    0.975
    96   6 C    3.917 --    98 C    1.368    97 N    1.188    95 C    1.179
    97   7 N    3.342 --    93 C    1.253    96 C    1.188    79 Co   0.626
    98   6 C    3.929 --    96 C    1.368    99 C    1.358   111 H    0.971
    99   6 C    3.916 --    98 C    1.358   103 N    1.195   100 C    1.181
   100   6 C    3.958 --   101 C    1.634    99 C    1.181   112 H    0.975
   101   6 C    3.960 --   100 C    1.634   102 C    1.190   113 H    0.971
   102   6 C    3.909 --    80 C    1.245   103 N    1.245   101 C    1.190
   103   7 N    3.344 --   102 C    1.245    99 C    1.195    79 Co   0.627
   104   1 H    1.004 --    82 C    0.971
   105   1 H    0.997 --    83 C    0.975
   106   1 H    1.000 --    86 C    0.971
   107   1 H    0.997 --    88 C    0.975
   108   1 H    1.003 --    89 C    0.971
   109   1 H    1.003 --    94 C    0.971
   110   1 H    0.997 --    95 C    0.975
   111   1 H    1.000 --    98 C    0.971
   112   1 H    0.997 --   100 C    0.975
   113   1 H    1.003 --   101 C    0.971
   114  27 Co   3.016 --   132 N    0.624   125 N    0.623   120 N    0.622
                           138 N    0.621
   115   6 C    3.915 --   137 C    1.242   116 C    1.241    76 C    1.214
   116   6 C    3.908 --   120 N    1.253   115 C    1.241   117 C    1.188
   117   6 C    3.960 --   118 C    1.638   116 C    1.188   139 H    0.971
   118   6 C    3.958 --   117 C    1.638   119 C    1.178   140 H    0.975
   119   6 C    3.917 --   121 C    1.372   120 N    1.187   118 C    1.178
   120   7 N    3.338 --   116 C    1.253   119 C    1.187   114 Co   0.622
   121   6 C    3.925 --   119 C    1.372   122 C    1.355   141 H    0.971
   122   6 C    3.916 --   121 C    1.355   125 N    1.199   123 C    1.181
   123   6 C    3.959 --   124 C    1.636   122 C    1.181   142 H    0.975
   124   6 C    3.961 --   123 C    1.636   126 C    1.189   143 H    0.970
   125   7 N    3.341 --   126 C    1.239   122 C    1.199   114 Co   0.623
   126   6 C    3.910 --   127 C    1.255   125 N    1.239   124 C    1.189
   127   6 C    3.915 --   126 C    1.255   128 C    1.251    77 C    1.193
   128   6 C    3.910 --   127 C    1.251   132 N    1.243   129 C    1.189
   129   6 C    3.961 --   130 C    1.635   128 C    1.189   144 H    0.970
   130   6 C    3.959 --   129 C    1.635   131 C    1.180   145 H    0.975
   131   6 C    3.916 --   133 C    1.358   132 N    1.196   130 C    1.180
   132   7 N    3.342 --   128 C    1.243   131 C    1.196   114 Co   0.624
   133   6 C    3.926 --   134 C    1.369   131 C    1.358   146 H    0.971
   134   6 C    3.917 --   133 C    1.369   138 N    1.189   135 C    1.178
   135   6 C    3.958 --   136 C    1.637   134 C    1.178   147 H    0.975
   136   6 C    3.960 --   135 C    1.637   137 C    1.187   148 H    0.971
   137   6 C    3.908 --   138 N    1.252   115 C    1.242   136 C    1.187
   138   7 N    3.339 --   137 C    1.252   134 C    1.189   114 Co   0.621
   139   1 H    1.004 --   117 C    0.971
   140   1 H    0.997 --   118 C    0.975
   141   1 H    1.000 --   121 C    0.971
   142   1 H    0.997 --   123 C    0.975
   143   1 H    1.004 --   124 C    0.970
   144   1 H    1.004 --   129 C    0.970
   145   1 H    0.997 --   130 C    0.975
   146   1 H    1.000 --   133 C    0.971
   147   1 H    0.997 --   135 C    0.975
   148   1 H    1.004 --   136 C    0.971
 ---------------------------------------------------------------------------

           -------------------------------------------------
          | TOTAL ENERGY             -269.440001146828 Eh   |
          | GRADIENT NORM               0.000622903940 Eh/α |
          | HOMO-LUMO GAP               0.001449416056 eV   |
           -------------------------------------------------

 * finished run on 2022/07/29 at 22:04:05.332
