   * xtb version 6.5.1 (b24c23e) compiled by 'conda@728c89f4b128' on 2022-07-12
          program call               : xtb Co_PhNO2_C8_2.xyz --gfn 1 --opt -T 48

   ID    Z sym.   atoms
    1   27 Co     1, 61
    2    6 C      2-6, 8-12, 16-20, 22-27, 29-33, 37-42, 62-66, 68-72, 76-80,
                  82-87, 89-93, 97-102, 121-128
    3    7 N      7, 13, 21, 28, 34, 43, 67, 73, 81, 88, 94, 103
    4    8 O      14, 15, 35, 36, 74, 75, 95, 96
    5    1 H      44-60, 104-120
########################################################################
[WARNING] Please study the warnings concerning your input carefully
-1- prog_main_parseArguments: Unknown option '-T' provided
########################################################################

          :  Hamiltonian                  GFN1-xTB          :
 * total energy  :  -252.2217868 Eh     change       -0.1397211E-09 Eh
 * total energy  :  -252.5901069 Eh     change       -0.3683201E+00 Eh
 * total energy  :  -252.7148867 Eh     change       -0.1247798E+00 Eh
 * total energy  :  -252.7506006 Eh     change       -0.3571389E-01 Eh
 * total energy  :  -252.7680759 Eh     change       -0.1747528E-01 Eh
 * total energy  :  -252.7766279 Eh     change       -0.8552002E-02 Eh
 * total energy  :  -252.7812653 Eh     change       -0.4637411E-02 Eh
 * total energy  :  -252.7829984 Eh     change       -0.1733118E-02 Eh
 * total energy  :  -252.7850200 Eh     change       -0.2021605E-02 Eh
 * total energy  :  -252.7860340 Eh     change       -0.1013983E-02 Eh
 * total energy  :  -252.7908595 Eh     change       -0.2055536E-04 Eh
 * total energy  :  -252.7908740 Eh     change       -0.1450580E-04 Eh
 * total energy  :  -252.7908830 Eh     change       -0.9005264E-05 Eh
 * total energy  :  -252.7908942 Eh     change       -0.1120894E-04 Eh
 * total energy  :  -252.7908989 Eh     change       -0.4714832E-05 Eh
 * total energy  :  -252.7909050 Eh     change       -0.6058070E-05 Eh
 * total energy  :  -252.7909079 Eh     change       -0.2899443E-05 Eh
 * total energy  :  -252.7909084 Eh     change       -0.5747197E-06 Eh
 * total energy  :  -252.7909129 Eh     change       -0.4499520E-05 Eh
   *** GEOMETRY OPTIMIZATION CONVERGED AFTER 64 ITERATIONS ***

 final structure:
================
128
 xtb: 6.5.1 (b24c23e)
Co          13.41334495896845       -0.03150469797295       -0.05360057990798
C           10.04596400825136       -0.03666212611298       -0.18101214092678
C           10.69896646695139       -1.24527638264096       -0.06659693218307
C           10.03651116450554       -2.51034581650586        0.03208098470711
C           10.99491229286734       -3.46030226409623       -0.07529973516487
C           12.24050927821811       -2.77317607706821       -0.25738826941779
N           12.05657907260955       -1.41692437250086       -0.17424084559888
C           13.43599130278730       -3.39193463370525       -0.59962254980877
C           13.45020622459756       -4.85032642380500       -0.84390295938473
C           14.28281689971038       -5.68304503833656       -0.08969434613052
C           14.30284829546208       -7.04731794257417       -0.31464116478116
C           13.48771331511746       -7.58356004728579       -1.30749097741041
N           13.50875594069578       -9.01508144358922       -1.55172775615114
O           12.78766115727738       -9.44390785532896       -2.41570317303282
O           14.24634021478126       -9.68524767594038       -0.87557743443230
C           12.65383332725861       -6.77188222410026       -2.07135112652858
C           12.63652723848634       -5.40961509372971       -1.83406775419826
C           14.61869194471212       -2.67777029505537       -0.73278342402935
C           15.86130609964984       -3.24322516625533       -1.16480961366730
C           16.80583155061019       -2.28668107454031       -0.99400296355481
N           14.79171119681119       -1.36338729479139       -0.36766510158690
C           16.13697150595291       -1.14081356215747       -0.46497764442102
C           16.80190969163032       -0.01853230868511        0.03625202256371
C           16.10596057012870        1.09009137606229        0.52544191692816
C           16.73959405134492        2.22922069365058        1.10930293301083
C           15.77560377945481        3.16669072271083        1.27675135506589
C           14.55869682771105        2.60079417257973        0.77660240288610
N           14.76182169328471        1.29675530307602        0.38791323632882
C           13.38126280115629        3.31166741825647        0.59055224236752
C           13.36677262549535        4.76424262750986        0.86570301292566
C           12.46791670926049        5.29958515064313        1.79364263261475
C           12.45086013407102        6.65778158554258        2.05323105612380
C           13.33742592489547        7.48986814329290        1.37553581375319
N           13.32135494597670        8.91753981150411        1.64152606976290
O           12.51986064739203        9.32661921055580        2.44189411861760
O           14.11040830652866        9.60464138330431        1.04516604979856
C           14.23866261282603        6.97772365981860        0.44651222931821
C           14.25061923400546        5.61760216077739        0.19754746031198
C           12.21781242010326        2.69807415603306        0.14239228375333
C           10.99196586961397        3.38768281257543       -0.13738292770664
C           10.05133830382368        2.43956071202467       -0.35891032787061
C           10.70501364169688        1.17322905550155       -0.22461943028709
N           12.04546813716983        1.34414037898187        0.01719653144092
H            8.96375704346120       -0.03735413952833       -0.23252909001736
H            8.97316004967518       -2.63454664569847        0.16012885041343
H           10.88226725136540       -4.53174514526877       -0.04030838471195
H           14.90468369968951       -5.25433276356023        0.68750466051258
H           14.93988128159711       -7.70129621089583        0.26862193799214
H           12.03285324717945       -7.21353698650435       -2.84143832318625
H           12.00190212248551       -4.76538811425478       -2.43133478231016
H           15.98404819626824       -4.24252917505855       -1.54941201066594
H           17.86390822982023       -2.34022674606610       -1.19302045029468
H           17.78888663849233        2.28994596173563        1.34881710941999
H           15.87028440564464        4.15455579462667        1.69710611872552
H           11.79175946815653        4.63988650557312        2.32471495223847
H           11.76229101006305        7.08086316845546        2.77466944412965
H           14.91530034071701        7.64710111865775       -0.07086746438450
H           14.93759972458536        5.20872585748073       -0.53411540287699
H           10.87914702463332        4.45947364712616       -0.15819739526811
H            9.00460849520771        2.56587060189144       -0.58459311990770
Co          31.92760458227968        0.04611055030927       -0.03874851266198
C           35.29640389605827        0.09939113636148       -0.15640776637115
C           34.64341067046003        1.18059679676220        0.39543498199887
C           35.30729096743593        2.32029837887103        0.95162666187296
C           34.34894349973856        3.24107321278844        1.20850350336224
C           33.10197421886098        2.66799670260073        0.79210245661455
N           33.28543400478347        1.37817707935421        0.36438148006437
C           31.90457662048267        3.36727546201377        0.71567424743792
C           31.89003202136634        4.81100635339109        1.03660751781574
C           31.07203010336377        5.29664006781101        2.06145512998329
C           31.05167193802402        6.64563172836318        2.36496876545122
C           31.85112440553301        7.51830618022992        1.63213761234470
N           31.82900836707622        8.93697856549223        1.94251538081655
O           32.53357845482701        9.66194103015112        1.28798647634804
O           31.10794439584441        9.30108879581704        2.83567416893394
C           32.67016727241867        7.05567916855919        0.60607801087521
C           32.68853713741618        5.70381560483217        0.31524629823627
C           30.72012626002578        2.75380114216843        0.33268338869485
C           29.47584002450191        3.43979317457024        0.15483452476520
C           28.53149774151953        2.48923677287021       -0.04667878692303
N           30.54789790901803        1.39887157803640        0.17297345498318
C           29.20211348922670        1.22902820287817        0.00333136484746
C           28.53746135966274        0.00038151443245        0.03810252649042
C           29.23291990000695       -1.21118499715679        0.06781498453319
C           28.59720320656149       -2.48597625471175        0.17194691228663
C           29.56117682914567       -3.41782299607829       -0.02374523997830
C           30.78020778961076       -2.70566466581330       -0.26455555457921
N           30.57780344458675       -1.35122907545085       -0.13217063038931
C           31.96009514944597       -3.29606667706496       -0.69471666143280
C           31.97481322613092       -4.74613194424258       -0.98401811632820
C           32.86115472944999       -5.59273515634166       -0.31090610900825
C           32.87836957610549       -6.94925463377150       -0.57923719020951
C           32.00511442348554       -7.46386036390787       -1.53329865603291
N           32.02199718830848       -8.88706926923090       -1.82228574840369
O           32.80991753689536       -9.56923845931409       -1.21897533576898
O           31.24613258389412       -9.29773256727615       -2.64682913954027
C           31.11663040659390       -6.63818459053045       -2.21627926426928
C           31.10389007941569       -5.28398070700897       -1.93683592188999
C           33.12582053564839       -2.56124915869510       -0.87233734944565
C           34.35388785525271       -3.09952278030280       -1.38087338181166
C           35.29419527717633       -2.13714127278333       -1.23195711189861
C           34.63814587530546       -1.00981241980897       -0.64233153741296
N           33.29703326076744       -1.25751445885773       -0.48557961952960
H           36.37859697716668        0.11955526550143       -0.20432518962304
H           36.37141984955122        2.38969061448036        1.11086609468491
H           34.46223977073888        4.22386260544133        1.63650964064685
H           30.46187558535346        4.60522953155483        2.63085826072151
H           30.42616515464529        7.03064346301412        3.16134462307037
H           33.27902037824435        7.75642284814308        0.04753504223941
H           33.31198037538571        5.33286721800209       -0.48988151223705
H           29.35215409771517        4.51013824000872        0.18036683011336
H           27.47251875474684        2.61320235507304       -0.20539032781861
H           27.54667870580591       -2.63184042123169        0.36476892025034
H           29.46535233570353       -4.49121770538502       -0.01079355074061
H           33.52728354378736       -5.18204833648836        0.43879192777132
H           33.55704297268085       -7.61399343493430       -0.05853011453026
H           30.45027227191905       -7.06276163673539       -2.95742913369799
H           30.42655495576054       -4.62858554214205       -2.47174932071416
H           34.46808030173563       -4.08796961540106       -1.79539320568473
H           36.34212057772379       -2.17141313325258       -1.48336094994144
C           18.20381232882093       -0.00953810145472        0.05489444355071
C           19.42880788800118       -0.00948475623808        0.06340110309787
C           20.77006394320421       -0.00998546981245        0.07120747519308
C           22.00146629881595       -0.01491453533001        0.07315587310855
C           23.33785607580841       -0.01815786605981        0.07227882344786
C           24.56924557977578       -0.02193829620252        0.06784884307588
C           25.91050637605105       -0.01871249047636        0.05990756069010
C           27.13548507429501       -0.01509399673614        0.05168780448442

          :  Hamiltonian                  GFN1-xTB          :
         :: total energy            -252.790912945409 Eh    ::
         :: gradient norm              0.000417362229 Eh/a0 ::
         :: HOMO-LUMO gap              0.002866329443 eV    ::
         :: SCC energy              -256.420201810587 Eh    ::
         :: repulsion energy           3.742405072544 Eh    ::

    * Orbital Energies and Occupations

         #    Occupation            Energy/Eh            Energy/eV
      -------------------------------------------------------------
         1        2.0000           -0.9236946             -25.1350
       ...           ...                  ...                  ...
       212        2.0000           -0.4414397             -12.0122
       213        2.0000           -0.4324760             -11.7683
       214        2.0000           -0.4208123             -11.4509
       215        2.0000           -0.4208083             -11.4508
       216        2.0000           -0.4201297             -11.4323
       217        2.0000           -0.4200720             -11.4307
       218        2.0000           -0.4185265             -11.3887
       219        1.9998           -0.4165332             -11.3344
       220        1.9998           -0.4165078             -11.3338
       221        1.9997           -0.4163429             -11.3293
       222        1.9997           -0.4163133             -11.3285
       223        1.8445           -0.4103180             -11.1653
       224        1.1059           -0.4081705             -11.1069 (HOMO)
       225        1.0508           -0.4080652             -11.1040 (LUMO)
       226                         -0.3624926              -9.8639
       227                         -0.3590451              -9.7701
       228                         -0.3589238              -9.7668
       229                         -0.3527344              -9.5984
       230                         -0.3507020              -9.5431
       231                         -0.3506959              -9.5429
       232                         -0.3432592              -9.3406
       233                         -0.3431493              -9.3376
       234                         -0.3251066              -8.8466
       235                         -0.3240705              -8.8184
       ...                                ...                  ...
       454                          1.5825011              43.0620
      -------------------------------------------------------------
                  HL-Gap            0.0001053 Eh            0.0029 eV

Wiberg/Mayer (AO) data.
largest (>0.10) Wiberg bond orders for each atom

     #   Z sym  total        # sym  WBO       # sym  WBO       # sym  WBO
 ---------------------------------------------------------------------------
     1  27 Co   3.046 --     7 N    0.641    43 N    0.639    28 N    0.635
                            21 N    0.633
     2   6 C    3.930 --    42 C    1.366     3 C    1.365    44 H    0.969
     3   6 C    3.921 --     2 C    1.365     7 N    1.199     4 C    1.173
     4   6 C    3.958 --     5 C    1.651     3 C    1.173    45 H    0.974
     5   6 C    3.963 --     4 C    1.651     6 C    1.174    46 H    0.973
     6   6 C    3.921 --     8 C    1.318     7 N    1.212     5 C    1.174
     7   7 N    3.346 --     6 C    1.212     3 C    1.199     1 Co   0.641
     8   6 C    3.931 --    18 C    1.325     6 C    1.318     9 C    1.036
     9   6 C    3.985 --    17 C    1.383    10 C    1.383     8 C    1.036
    10   6 C    3.985 --    11 C    1.464     9 C    1.383    47 H    0.971
                            16 C    0.102
    11   6 C    3.987 --    10 C    1.464    12 C    1.387    48 H    0.965
                            17 C    0.102
    12   6 C    3.941 --    16 C    1.387    11 C    1.387    13 N    0.921
    13   7 N    3.866 --    15 O    1.454    14 O    1.454    12 C    0.921
    14   8 O    1.829 --    13 N    1.454    15 O    0.252
    15   8 O    1.829 --    13 N    1.454    14 O    0.252
    16   6 C    3.987 --    17 C    1.464    12 C    1.387    49 H    0.965
                            10 C    0.102
    17   6 C    3.986 --    16 C    1.464     9 C    1.383    50 H    0.971
                            11 C    0.102
    18   6 C    3.916 --     8 C    1.325    21 N    1.196    19 C    1.181
    19   6 C    3.957 --    20 C    1.636    18 C    1.181    51 H    0.973
    20   6 C    3.961 --    19 C    1.636    22 C    1.190    52 H    0.973
    21   7 N    3.349 --    22 C    1.227    18 C    1.196     1 Co   0.633
    22   6 C    3.900 --    23 C    1.259    21 N    1.227    20 C    1.190
    23   6 C    3.936 --    22 C    1.259    24 C    1.259   121 C    1.194
    24   6 C    3.900 --    23 C    1.259    28 N    1.228    25 C    1.190
    25   6 C    3.959 --    26 C    1.637    24 C    1.190    53 H    0.973
    26   6 C    3.957 --    25 C    1.637    27 C    1.181    54 H    0.973
    27   6 C    3.916 --    29 C    1.327    28 N    1.195    26 C    1.181
    28   7 N    3.348 --    24 C    1.228    27 C    1.195     1 Co   0.635
    29   6 C    3.931 --    27 C    1.327    39 C    1.315    30 C    1.037
    30   6 C    3.985 --    31 C    1.382    38 C    1.382    29 C    1.037
    31   6 C    3.985 --    32 C    1.464    30 C    1.382    55 H    0.971
                            37 C    0.101
    32   6 C    3.987 --    31 C    1.464    33 C    1.387    56 H    0.965
                            38 C    0.101
    33   6 C    3.941 --    32 C    1.387    37 C    1.387    34 N    0.921
    34   7 N    3.866 --    35 O    1.454    36 O    1.454    33 C    0.921
    35   8 O    1.829 --    34 N    1.454    36 O    0.252
    36   8 O    1.829 --    34 N    1.454    35 O    0.252
    37   6 C    3.987 --    38 C    1.464    33 C    1.387    57 H    0.965
                            31 C    0.101
    38   6 C    3.985 --    37 C    1.464    30 C    1.382    58 H    0.971
                            32 C    0.101
    39   6 C    3.920 --    29 C    1.315    43 N    1.214    40 C    1.175
    40   6 C    3.963 --    41 C    1.650    39 C    1.175    59 H    0.973
    41   6 C    3.958 --    40 C    1.650    42 C    1.173    60 H    0.974
    42   6 C    3.921 --     2 C    1.366    43 N    1.198    41 C    1.173
    43   7 N    3.347 --    39 C    1.214    42 C    1.198     1 Co   0.639
    44   1 H    0.999 --     2 C    0.969
    45   1 H    0.997 --     4 C    0.974
    46   1 H    1.002 --     5 C    0.973
    47   1 H    1.003 --    10 C    0.971
    48   1 H    1.006 --    11 C    0.965
    49   1 H    1.006 --    16 C    0.965
    50   1 H    1.004 --    17 C    0.971
    51   1 H    1.002 --    19 C    0.973
    52   1 H    1.000 --    20 C    0.973
    53   1 H    1.000 --    25 C    0.973
    54   1 H    1.002 --    26 C    0.973
    55   1 H    1.004 --    31 C    0.971
    56   1 H    1.006 --    32 C    0.965
    57   1 H    1.006 --    37 C    0.965
    58   1 H    1.004 --    38 C    0.971
    59   1 H    1.002 --    40 C    0.973
    60   1 H    0.997 --    41 C    0.974
    61  27 Co   3.042 --    67 N    0.640   103 N    0.638    88 N    0.635
                            81 N    0.633
    62   6 C    3.930 --   102 C    1.366    63 C    1.365   104 H    0.969
    63   6 C    3.921 --    62 C    1.365    67 N    1.199    64 C    1.173
    64   6 C    3.958 --    65 C    1.651    63 C    1.173   105 H    0.974
    65   6 C    3.963 --    64 C    1.651    66 C    1.174   106 H    0.973
    66   6 C    3.921 --    68 C    1.318    67 N    1.212    65 C    1.174
    67   7 N    3.346 --    66 C    1.212    63 C    1.199    61 Co   0.640
    68   6 C    3.931 --    78 C    1.326    66 C    1.318    69 C    1.035
    69   6 C    3.985 --    77 C    1.383    70 C    1.383    68 C    1.035
    70   6 C    3.985 --    71 C    1.464    69 C    1.383   107 H    0.971
                            76 C    0.102
    71   6 C    3.987 --    70 C    1.464    72 C    1.387   108 H    0.965
                            77 C    0.102
    72   6 C    3.941 --    76 C    1.387    71 C    1.387    73 N    0.921
    73   7 N    3.866 --    75 O    1.454    74 O    1.454    72 C    0.921
    74   8 O    1.829 --    73 N    1.454    75 O    0.252
    75   8 O    1.829 --    73 N    1.454    74 O    0.252
    76   6 C    3.987 --    77 C    1.464    72 C    1.387   109 H    0.965
                            70 C    0.102
    77   6 C    3.986 --    76 C    1.464    69 C    1.383   110 H    0.971
                            71 C    0.102
    78   6 C    3.916 --    68 C    1.326    81 N    1.196    79 C    1.181
    79   6 C    3.957 --    80 C    1.637    78 C    1.181   111 H    0.973
    80   6 C    3.961 --    79 C    1.637    82 C    1.190   112 H    0.973
    81   7 N    3.349 --    82 C    1.227    78 C    1.196    61 Co   0.633
    82   6 C    3.900 --    83 C    1.259    81 N    1.227    80 C    1.190
    83   6 C    3.936 --    82 C    1.259    84 C    1.259   128 C    1.194
    84   6 C    3.900 --    83 C    1.259    88 N    1.228    85 C    1.190
    85   6 C    3.959 --    86 C    1.637    84 C    1.190   113 H    0.973
    86   6 C    3.957 --    85 C    1.637    87 C    1.181   114 H    0.973
    87   6 C    3.916 --    89 C    1.328    88 N    1.195    86 C    1.181
    88   7 N    3.348 --    84 C    1.228    87 C    1.195    61 Co   0.635
    89   6 C    3.931 --    87 C    1.328    99 C    1.315    90 C    1.037
    90   6 C    3.985 --    91 C    1.383    98 C    1.382    89 C    1.037
    91   6 C    3.985 --    92 C    1.464    90 C    1.383   115 H    0.971
                            97 C    0.101
    92   6 C    3.987 --    91 C    1.464    93 C    1.387   116 H    0.965
                            98 C    0.101
    93   6 C    3.941 --    92 C    1.387    97 C    1.387    94 N    0.921
    94   7 N    3.866 --    95 O    1.454    96 O    1.454    93 C    0.921
    95   8 O    1.829 --    94 N    1.454    96 O    0.252
    96   8 O    1.829 --    94 N    1.454    95 O    0.252
    97   6 C    3.987 --    98 C    1.464    93 C    1.387   117 H    0.965
                            91 C    0.101
    98   6 C    3.986 --    97 C    1.464    90 C    1.382   118 H    0.971
                            92 C    0.101
    99   6 C    3.920 --    89 C    1.315   103 N    1.214   100 C    1.175
   100   6 C    3.963 --   101 C    1.650    99 C    1.175   119 H    0.973
   101   6 C    3.959 --   100 C    1.650   102 C    1.173   120 H    0.974
   102   6 C    3.921 --    62 C    1.366   103 N    1.198   101 C    1.173
   103   7 N    3.347 --    99 C    1.214   102 C    1.198    61 Co   0.638
   104   1 H    0.999 --    62 C    0.969
   105   1 H    0.997 --    64 C    0.974
   106   1 H    1.002 --    65 C    0.973
   107   1 H    1.003 --    70 C    0.971
   108   1 H    1.006 --    71 C    0.965
   109   1 H    1.006 --    76 C    0.965
   110   1 H    1.003 --    77 C    0.971
   111   1 H    1.002 --    79 C    0.973
   112   1 H    1.000 --    80 C    0.973
   113   1 H    1.000 --    85 C    0.973
   114   1 H    1.002 --    86 C    0.973
   115   1 H    1.003 --    91 C    0.971
   116   1 H    1.006 --    92 C    0.965
   117   1 H    1.006 --    97 C    0.965
   118   1 H    1.004 --    98 C    0.971
   119   1 H    1.002 --   100 C    0.973
   120   1 H    0.997 --   101 C    0.974
   121   6 C    3.870 --   122 C    2.431    23 C    1.194   124 C    0.185
   122   6 C    3.931 --   121 C    2.431   123 C    1.351
   123   6 C    3.886 --   124 C    2.324   122 C    1.351   126 C    0.180
   124   6 C    3.920 --   123 C    2.324   125 C    1.376   121 C    0.185
   125   6 C    3.920 --   126 C    2.324   124 C    1.376   128 C    0.185
   126   6 C    3.886 --   125 C    2.324   127 C    1.350   123 C    0.180
   127   6 C    3.931 --   128 C    2.431   126 C    1.350
   128   6 C    3.870 --   127 C    2.431    83 C    1.194   125 C    0.185
 ---------------------------------------------------------------------------

           -------------------------------------------------
          | TOTAL ENERGY             -252.790912945409 Eh   |
          | GRADIENT NORM               0.000417362229 Eh/α |
          | HOMO-LUMO GAP               0.002866329443 eV   |
           -------------------------------------------------

 * finished run on 2022/07/30 at 02:15:02.963
