   * xtb version 6.5.1 (b24c23e) compiled by 'conda@728c89f4b128' on 2022-07-12
          program call               : xtb Fe_m-CP_C2_2.xyz --gfn 1 --opt -T 48

   ID    Z sym.   atoms
    1   26 Fe     1, 63
    2    6 C      2-6, 8-12, 15-20, 22-27, 29-35, 38-42, 64-68, 70-74, 77-82,
                  84-89, 91-97, 100-104, 125, 126
    3    7 N      7, 21, 28, 43, 69, 83, 90, 105
    4    8 O      13, 14, 36, 37, 75, 76, 98, 99
    5    1 H      44-62, 106-124
########################################################################
[WARNING] Please study the warnings concerning your input carefully
-1- prog_main_parseArguments: Unknown option '-T' provided
########################################################################

          :  Hamiltonian                  GFN1-xTB          :
 * total energy  :  -237.0962065 Eh     change       -0.1723819E-07 Eh
 * total energy  :  -237.4266622 Eh     change       -0.3304557E+00 Eh
 * total energy  :  -237.5277863 Eh     change       -0.1011241E+00 Eh
 * total energy  :  -237.5757183 Eh     change       -0.4793194E-01 Eh
 * total energy  :  -237.5963134 Eh     change       -0.2059508E-01 Eh
 * total energy  :  -237.6062011 Eh     change       -0.9887765E-02 Eh
 * total energy  :  -237.6118238 Eh     change       -0.5622727E-02 Eh
 * total energy  :  -237.6155282 Eh     change       -0.3704326E-02 Eh
 * total energy  :  -237.6181279 Eh     change       -0.2599688E-02 Eh
 * total energy  :  -237.6198471 Eh     change       -0.1719224E-02 Eh
 * total energy  :  -237.6243616 Eh     change       -0.1320800E-04 Eh
 * total energy  :  -237.6243712 Eh     change       -0.9663637E-05 Eh
 * total energy  :  -237.6243786 Eh     change       -0.7347799E-05 Eh
 * total energy  :  -237.6243848 Eh     change       -0.6275225E-05 Eh
 * total energy  :  -237.6243934 Eh     change       -0.8524974E-05 Eh
 * total energy  :  -237.6244033 Eh     change       -0.9913896E-05 Eh
 * total energy  :  -237.6244113 Eh     change       -0.8023501E-05 Eh
 * total energy  :  -237.6244180 Eh     change       -0.6658184E-05 Eh
 * total energy  :  -237.6244221 Eh     change       -0.4126315E-05 Eh
   *** GEOMETRY OPTIMIZATION CONVERGED AFTER 57 ITERATIONS ***

 final structure:
================
126
 xtb: 6.5.1 (b24c23e)
Fe          17.05067042663505        0.02762516386393        0.01300899161434
C           13.66760698833030        0.02252218936591        0.14890497801984
C           14.31339256725478        1.24210250626326        0.12839660987945
C           13.63835406805324        2.50472203859284        0.10177081164618
C           14.59386149373235        3.45826991836632        0.20604269302432
C           15.85097263829517        2.77527898590607        0.31499258837155
N           15.66840080889997        1.42197804585820        0.22113322598697
C           17.06437259573464        3.40324353905256        0.57388754139587
C           17.07740233617379        4.87007067774405        0.78363293220377
C           16.35290008235953        5.44488409015797        1.82387184010391
C           16.37200246570719        6.82522542770168        2.01962088704033
C           15.58248616503227        7.37768069612116        3.14936535243773
O           15.67731985163765        8.70990630917876        3.26843751721510
O           14.91256818629985        6.71431227511992        3.89853639030699
C           17.11563394253812        7.64229038716543        1.16824294393992
C           17.83559589478663        7.07229000022568        0.12988477691416
C           17.82061354787935        5.69807183475475       -0.06143460876116
C           18.26736128409187        2.71342307901539        0.65027498928095
C           19.51914418158270        3.31675041914178        0.99829847161422
C           20.46801087008546        2.36099233652288        0.84737257743741
N           18.44748689606288        1.38577743796018        0.34696783151670
C           19.79451962666020        1.17879065967561        0.41035473346729
C           20.45806676846799        0.01076930688696        0.01708739349416
C           19.77895906030989       -1.14883735392616       -0.37695750208151
C           20.43402820860119       -2.32348812529435       -0.85901960180577
C           19.47494616758031       -3.26871281217136       -1.01445617450981
C           18.23632340219446       -2.66802447546477       -0.61874388668720
N           18.43449482033845       -1.35250020429000       -0.27531401662231
C           17.03160138198015       -3.35211544433835       -0.52325285649269
C           17.02282469042735       -4.81090020963319       -0.78324316309673
C           17.79182885802719       -5.67393194750551        0.00095523598336
C           17.78536318018877       -7.04098981026473       -0.23832417839469
C           17.01622757579193       -7.56268561870137       -1.26503272380237
C           16.24517198386683       -6.71025813344432       -2.05682647008592
C           15.43628475619844       -7.30791246487696       -3.14908255018315
O           14.72072328373236       -6.40920190397598       -3.84034496468868
O           15.40817487525030       -8.48383634860855       -3.40754067259433
C           16.24761783224659       -5.33833227550561       -1.81387991441218
C           15.83403191100355       -2.72588132981352       -0.19396421010838
C           14.58282735667610       -3.40985253424455       -0.03523451131644
C           13.63821293597973       -2.45864650356987        0.15473624294072
C           14.31378421489302       -1.19649867264189        0.12136392155346
N           15.66269313170682       -1.37654686656982       -0.04153311262893
H           12.58393770344602        0.02196106352521        0.18037573615859
H           12.57047796054287        2.62583795852781        0.01317135983130
H           14.47119961946962        4.52914329820345        0.21121502319944
H           15.78007867101854        4.82402775102101        2.50403726351585
H           15.13678007255664        8.99165665201740        4.02438420054071
H           17.12728839396750        8.71465461583317        1.32078402647903
H           18.41311587879322        7.70167375824107       -0.53777387274954
H           18.37715293363918        5.25903698380005       -0.88194169388582
H           19.64525584157204        4.33698231824125        1.32222603542924
H           21.52991738904981        2.43697771599176        1.01540250372613
H           21.49085364492215       -2.40082201476771       -1.05614729983323
H           19.58630258758478       -4.27930568153318       -1.37234941123466
H           18.38519632157756       -5.26828489284641        0.81273298184345
H           18.38325535440903       -7.69919272972960        0.38170946934302
H           17.00075003014727       -8.62777628906751       -1.46684221745908
H           14.22347347363580       -6.87610166334901       -4.53144126370189
H           15.65872622315863       -4.67717107794420       -2.43852734094328
H           14.45666155353218       -4.47994610031162       -0.06515408797384
H           12.57670363906849       -2.58067256022469        0.30024372358113
Fe          27.89221675705184       -0.03036132302182        0.00329908260835
C           31.27527621842635       -0.06986927999316        0.13331936756266
C           30.62947245435727       -1.21606407141744       -0.28382765601361
C           31.30449414658429       -2.40094183967751       -0.72086523396277
C           30.34897718341047       -3.33635098099086       -0.93328163872081
C           29.09187767648134       -2.72626254687316       -0.60744804755447
N           29.27446475254052       -1.41635913646097       -0.25477262988489
C           27.87847334932018       -3.40433349144888       -0.56751180488499
C           27.86542445579622       -4.85935292330601       -0.84766129941920
C           28.58991092310637       -5.74205522092464       -0.05182178626392
C           28.57088502166294       -7.11072385408082       -0.31711189528263
C           29.36110710471654       -8.00148485931510        0.57026197207903
O           29.26555304798918       -9.29965856840879        0.24874901271451
O           30.03033349167803       -7.61868263495605        1.49529385923096
C           27.82724473702103       -7.60539543213134       -1.38842758492246
C           27.10729733795411       -6.72786753064732       -2.18404829530697
C           27.12218190055095       -5.36642102292122       -1.91656207129322
C           26.67549141897723       -2.77713304188549       -0.27032142760029
C           25.42370242073611       -3.46096256541696       -0.13807994880726
C           24.47485136900008       -2.50822829774480        0.03097274405097
N           26.49538432195661       -1.42316017359374       -0.12401784890767
C           25.14835742550748       -1.24814722721530        0.00342986825235
C           24.48482340633488       -0.01572272109178        0.01264729043610
C           25.16394021496890        1.20898630472161        0.01839471883184
C           24.50888310654899        2.47663852550244       -0.05415121620548
C           25.46797225084463        3.42085711651286        0.10724061797190
C           26.70658901685992        2.72393582606870        0.28537695778737
N           26.50840593958249        1.36834375986639        0.18091648102152
C           27.91131497914812        3.33945424166332        0.59879238307833
C           27.92009936586809        4.80325312419716        0.82887838150870
C           27.15109341926664        5.36327732843597        1.85170237681214
C           27.15750297885776        6.73361817057947        2.07139984793668
C           27.92649943611801        7.56170015987854        1.27092435035459
C           28.69771609208332        7.01416087918640        0.24448863304595
C           29.50733693485708        7.93533513201980       -0.59254751665508
O           30.22211759508977        7.31133940221899       -1.53971178389302
O           29.53470252488022        9.13132122610170       -0.45385267958641
C           28.69526790675446        5.63802582276823        0.02663049534507
C           29.10888259316578        2.64005769339734        0.70578251392679
C           30.36009933147935        3.23483768018750        1.07890007110968
C           31.30470906860058        2.27369424774534        0.94815778034807
C           30.62911937403503        1.09146831838428        0.50493057687270
N           29.28020845147527        1.31480480183076        0.40972823568599
H           32.35894619383861       -0.07960699582702        0.16321079858101
H           32.37236474467944       -2.48653261263872       -0.84418009488257
H           30.47163151851102       -4.35033153281950       -1.27772302457461
H           29.16286195184719       -5.37702056921008        0.79357784251990
H           29.80588031828015       -9.81253294457812        0.87168249257673
H           27.81579260524575       -8.66884507550565       -1.59414629566596
H           26.52974742750832       -7.10503865081697       -3.02047140075094
H           26.56544103465649       -4.68378399152164       -2.54883873613019
H           25.29756751296008       -4.53105341649968       -0.16460294045752
H           23.41294685766052       -2.63484691248444        0.16505298092333
H           23.45205972468823        2.61405327534370       -0.21527677823984
H           25.35662835905000        4.49291738827543        0.09856269561947
H           26.55768186263895        4.71502271855016        2.48672581058912
H           26.55966145442736        7.15356262270131        2.87225582869847
H           27.94212889066035        8.63434367729795        1.42769223234502
H           30.71891914941663        7.97817073328859       -2.04101626882327
H           29.28421571417019        5.21677644767806       -0.77947999251798
H           30.48627581399119        4.25615892998940        1.39967296420102
H           32.36622641294131        2.34158280150298        1.12546154619092
C           21.86228960904948        0.00383218405009        0.01018845547549
C           23.08060080505789       -0.00690352127992        0.00839314337512

          :  Hamiltonian                  GFN1-xTB          :
         :: total energy            -237.624422088320 Eh    ::
         :: gradient norm              0.000699556611 Eh/a0 ::
         :: HOMO-LUMO gap              0.096986855513 eV    ::
         :: SCC energy              -240.985945747028 Eh    ::
         :: repulsion energy           3.477090580509 Eh    ::

    * Orbital Energies and Occupations

         #    Occupation            Energy/Eh            Energy/eV
      -------------------------------------------------------------
         1        2.0000           -0.8353402             -22.7308
       ...           ...                  ...                  ...
       199        2.0000           -0.4370261             -11.8921
       200        2.0000           -0.4348557             -11.8330
       201        2.0000           -0.4348423             -11.8327
       202        2.0000           -0.4077010             -11.0941
       203        2.0000           -0.4047536             -11.0139
       204        2.0000           -0.4047518             -11.0139
       205        1.9924           -0.3971009             -10.8057
       206        1.9920           -0.3970588             -10.8045
       207        1.9444           -0.3951888             -10.7536
       208        1.9420           -0.3951475             -10.7525
       209        1.9360           -0.3950505             -10.7499
       210        1.9358           -0.3950484             -10.7498
       211        1.7608           -0.3937080             -10.7133 (HOMO)
       212        0.2947           -0.3901438             -10.6164 (LUMO)
       213        0.2018           -0.3897336             -10.6052
       214                         -0.3468007              -9.4369
       215                         -0.3367165              -9.1625
       216                         -0.3367071              -9.1623
       217                         -0.3296579              -8.9704
       218                         -0.3145173              -8.5585
       219                         -0.3140128              -8.5447
       220                         -0.3133847              -8.5276
       221                         -0.3133610              -8.5270
       222                         -0.3079786              -8.3805
       ...                                ...                  ...
       438                          1.3278083              36.1315
      -------------------------------------------------------------
                  HL-Gap            0.0035642 Eh            0.0970 eV

Wiberg/Mayer (AO) data.
largest (>0.10) Wiberg bond orders for each atom

     #   Z sym  total        # sym  WBO       # sym  WBO       # sym  WBO
 ---------------------------------------------------------------------------
     1  26 Fe   3.187 --    43 N    0.677     7 N    0.669    21 N    0.668
                            28 N    0.660
     2   6 C    3.925 --    42 C    1.364     3 C    1.362    44 H    0.970
     3   6 C    3.923 --     2 C    1.362     7 N    1.209     4 C    1.172
     4   6 C    3.959 --     5 C    1.650     3 C    1.172    45 H    0.975
     5   6 C    3.962 --     4 C    1.650     6 C    1.174    46 H    0.973
     6   6 C    3.922 --     8 C    1.316     7 N    1.222     5 C    1.174
     7   7 N    3.380 --     6 C    1.222     3 C    1.209     1 Fe   0.669
     8   6 C    3.926 --    18 C    1.328     6 C    1.316     9 C    1.029
     9   6 C    3.988 --    10 C    1.407    17 C    1.386     8 C    1.029
                            15 C    0.102
    10   6 C    3.983 --     9 C    1.407    11 C    1.397    47 H    0.968
                            16 C    0.104
    11   6 C    3.988 --    10 C    1.397    15 C    1.392    12 C    1.004
                            17 C    0.100
    12   6 C    3.836 --    14 O    1.693    13 O    1.090    11 C    1.004
    13   8 O    2.099 --    12 C    1.090    48 H    0.838    14 O    0.129
    14   8 O    1.962 --    12 C    1.693    13 O    0.129
    15   6 C    3.986 --    16 C    1.447    11 C    1.392    49 H    0.970
                             9 C    0.102
    16   6 C    3.994 --    15 C    1.447    17 C    1.442    50 H    0.972
                            10 C    0.104
    17   6 C    3.986 --    16 C    1.442     9 C    1.386    51 H    0.972
                            11 C    0.100
    18   6 C    3.918 --     8 C    1.328    21 N    1.203    19 C    1.181
    19   6 C    3.956 --    20 C    1.635    18 C    1.181    52 H    0.973
    20   6 C    3.960 --    19 C    1.635    22 C    1.189    53 H    0.970
    21   7 N    3.383 --    22 C    1.241    18 C    1.203     1 Fe   0.668
    22   6 C    3.908 --    23 C    1.256    21 N    1.241    20 C    1.189
    23   6 C    3.926 --    22 C    1.256    24 C    1.253   125 C    1.192
    24   6 C    3.909 --    23 C    1.253    28 N    1.243    25 C    1.191
    25   6 C    3.960 --    26 C    1.634    24 C    1.191    54 H    0.970
    26   6 C    3.957 --    25 C    1.634    27 C    1.181    55 H    0.973
    27   6 C    3.919 --    29 C    1.329    28 N    1.202    26 C    1.181
    28   7 N    3.379 --    24 C    1.243    27 C    1.202     1 Fe   0.660
    29   6 C    3.926 --    27 C    1.329    39 C    1.315    30 C    1.029
    30   6 C    3.988 --    38 C    1.405    31 C    1.388    29 C    1.029
                            33 C    0.102
    31   6 C    3.986 --    32 C    1.440    30 C    1.388    56 H    0.972
    32   6 C    3.994 --    33 C    1.450    31 C    1.440    57 H    0.972
                            38 C    0.104
    33   6 C    3.985 --    32 C    1.450    34 C    1.388    58 H    0.969
                            30 C    0.102
    34   6 C    3.988 --    38 C    1.400    33 C    1.388    35 C    1.004
    35   6 C    3.836 --    37 O    1.693    36 O    1.090    34 C    1.004
    36   8 O    2.099 --    35 C    1.090    59 H    0.838    37 O    0.129
    37   8 O    1.961 --    35 C    1.693    36 O    0.129
    38   6 C    3.984 --    30 C    1.405    34 C    1.400    60 H    0.969
                            32 C    0.104
    39   6 C    3.922 --    29 C    1.315    43 N    1.223    40 C    1.174
    40   6 C    3.961 --    41 C    1.650    39 C    1.174    61 H    0.973
    41   6 C    3.959 --    40 C    1.650    42 C    1.173    62 H    0.975
    42   6 C    3.923 --     2 C    1.364    43 N    1.208    41 C    1.173
    43   7 N    3.383 --    39 C    1.223    42 C    1.208     1 Fe   0.677
    44   1 H    1.000 --     2 C    0.970
    45   1 H    0.997 --     4 C    0.975
    46   1 H    1.003 --     5 C    0.973
    47   1 H    1.007 --    10 C    0.968
    48   1 H    0.872 --    13 O    0.838
    49   1 H    1.005 --    15 C    0.970
    50   1 H    1.001 --    16 C    0.972
    51   1 H    1.004 --    17 C    0.972
    52   1 H    1.003 --    19 C    0.973
    53   1 H    1.005 --    20 C    0.970
    54   1 H    1.005 --    25 C    0.970
    55   1 H    1.004 --    26 C    0.973
    56   1 H    1.004 --    31 C    0.972
    57   1 H    1.001 --    32 C    0.972
    58   1 H    1.005 --    33 C    0.969
    59   1 H    0.872 --    36 O    0.838
    60   1 H    1.007 --    38 C    0.969
    61   1 H    1.003 --    40 C    0.973
    62   1 H    0.997 --    41 C    0.975
    63  26 Fe   3.187 --   105 N    0.677    69 N    0.669    83 N    0.668
                            90 N    0.660
    64   6 C    3.925 --   104 C    1.364    65 C    1.362   106 H    0.970
    65   6 C    3.923 --    64 C    1.362    69 N    1.209    66 C    1.172
    66   6 C    3.959 --    67 C    1.650    65 C    1.172   107 H    0.975
    67   6 C    3.962 --    66 C    1.650    68 C    1.174   108 H    0.973
    68   6 C    3.922 --    70 C    1.316    69 N    1.222    67 C    1.174
    69   7 N    3.380 --    68 C    1.222    65 C    1.209    63 Fe   0.669
    70   6 C    3.926 --    80 C    1.328    68 C    1.316    71 C    1.029
    71   6 C    3.988 --    72 C    1.407    79 C    1.386    70 C    1.029
                            77 C    0.102
    72   6 C    3.983 --    71 C    1.407    73 C    1.397   109 H    0.968
                            78 C    0.104
    73   6 C    3.988 --    72 C    1.397    77 C    1.392    74 C    1.004
                            79 C    0.100
    74   6 C    3.836 --    76 O    1.693    75 O    1.090    73 C    1.004
    75   8 O    2.099 --    74 C    1.090   110 H    0.838    76 O    0.129
    76   8 O    1.962 --    74 C    1.693    75 O    0.129
    77   6 C    3.986 --    78 C    1.447    73 C    1.392   111 H    0.970
                            71 C    0.102
    78   6 C    3.994 --    77 C    1.447    79 C    1.442   112 H    0.972
                            72 C    0.104
    79   6 C    3.986 --    78 C    1.442    71 C    1.386   113 H    0.972
                            73 C    0.100
    80   6 C    3.918 --    70 C    1.328    83 N    1.203    81 C    1.181
    81   6 C    3.956 --    82 C    1.635    80 C    1.181   114 H    0.973
    82   6 C    3.960 --    81 C    1.635    84 C    1.189   115 H    0.970
    83   7 N    3.383 --    84 C    1.241    80 C    1.203    63 Fe   0.668
    84   6 C    3.908 --    85 C    1.256    83 N    1.241    82 C    1.189
    85   6 C    3.926 --    84 C    1.256    86 C    1.253   126 C    1.192
    86   6 C    3.909 --    85 C    1.253    90 N    1.243    87 C    1.191
    87   6 C    3.960 --    88 C    1.634    86 C    1.191   116 H    0.970
    88   6 C    3.957 --    87 C    1.634    89 C    1.181   117 H    0.973
    89   6 C    3.919 --    91 C    1.329    90 N    1.202    88 C    1.181
    90   7 N    3.379 --    86 C    1.243    89 C    1.202    63 Fe   0.660
    91   6 C    3.926 --    89 C    1.329   101 C    1.315    92 C    1.029
    92   6 C    3.988 --   100 C    1.405    93 C    1.388    91 C    1.029
                            95 C    0.102
    93   6 C    3.986 --    94 C    1.440    92 C    1.388   118 H    0.972
    94   6 C    3.994 --    95 C    1.450    93 C    1.440   119 H    0.972
                           100 C    0.104
    95   6 C    3.985 --    94 C    1.450    96 C    1.388   120 H    0.969
                            92 C    0.102
    96   6 C    3.988 --   100 C    1.400    95 C    1.388    97 C    1.004
    97   6 C    3.836 --    99 O    1.693    98 O    1.091    96 C    1.004
    98   8 O    2.099 --    97 C    1.091   121 H    0.838    99 O    0.129
    99   8 O    1.961 --    97 C    1.693    98 O    0.129
   100   6 C    3.984 --    92 C    1.405    96 C    1.400   122 H    0.969
                            94 C    0.104
   101   6 C    3.922 --    91 C    1.315   105 N    1.223   102 C    1.174
   102   6 C    3.961 --   103 C    1.650   101 C    1.174   123 H    0.973
   103   6 C    3.959 --   102 C    1.650   104 C    1.173   124 H    0.975
   104   6 C    3.923 --    64 C    1.364   105 N    1.208   103 C    1.173
   105   7 N    3.383 --   101 C    1.223   104 C    1.208    63 Fe   0.677
   106   1 H    1.000 --    64 C    0.970
   107   1 H    0.997 --    66 C    0.975
   108   1 H    1.003 --    67 C    0.973
   109   1 H    1.007 --    72 C    0.968
   110   1 H    0.872 --    75 O    0.838
   111   1 H    1.005 --    77 C    0.970
   112   1 H    1.001 --    78 C    0.972
   113   1 H    1.004 --    79 C    0.972
   114   1 H    1.003 --    81 C    0.973
   115   1 H    1.005 --    82 C    0.970
   116   1 H    1.005 --    87 C    0.970
   117   1 H    1.004 --    88 C    0.973
   118   1 H    1.004 --    93 C    0.972
   119   1 H    1.001 --    94 C    0.972
   120   1 H    1.005 --    95 C    0.969
   121   1 H    0.872 --    98 O    0.838
   122   1 H    1.007 --   100 C    0.969
   123   1 H    1.003 --   102 C    0.973
   124   1 H    0.997 --   103 C    0.975
   125   6 C    3.924 --   126 C    2.553    23 C    1.192
   126   6 C    3.924 --   125 C    2.553    85 C    1.192
 ---------------------------------------------------------------------------

           -------------------------------------------------
          | TOTAL ENERGY             -237.624422088320 Eh   |
          | GRADIENT NORM               0.000699556611 Eh/α |
          | HOMO-LUMO GAP               0.096986855513 eV   |
           -------------------------------------------------

 * finished run on 2022/07/29 at 15:54:43.697
