   * xtb version 6.5.1 (b24c23e) compiled by 'conda@728c89f4b128' on 2022-07-12
          program call               : xtb Cu_NMA_C4_3.xyz --gfn 1 --opt -T 48

   ID    Z sym.   atoms
    1   29 Cu     1, 67, 141
    2    6 C      2-6, 8-12, 14-19, 21-26, 28-32, 34-40, 68-72, 74-78, 80-85,
                  87-92, 94-98, 100-106, 133-140, 142-146, 148-152, 154-159,
                  161-166, 168-172, 174-180
    3    7 N      7, 13, 20, 27, 33, 41, 73, 79, 86, 93, 99, 107, 147, 153,
                  160, 167, 173, 181
    4    1 H      42-66, 108-132, 182-205

          :  Hamiltonian                  GFN1-xTB          :
 * total energy  :  -319.1446944 Eh     change        0.5138077E-09 Eh
 * total energy  :  -336.6551389 Eh     change       -0.1751044E+02 Eh
 * total energy  :  -338.6919078 Eh     change       -0.2036769E+01 Eh
 * total energy  :  -340.1481576 Eh     change       -0.1456250E+01 Eh
 * total energy  :  -340.9223483 Eh     change       -0.7741906E+00 Eh
 * total energy  :  -341.3669030 Eh     change       -0.4445547E+00 Eh
 * total energy  :  -341.6613491 Eh     change       -0.2944461E+00 Eh
 * total energy  :  -341.8812484 Eh     change       -0.2198993E+00 Eh
 * total energy  :  -342.0586988 Eh     change       -0.1774504E+00 Eh
 * total energy  :  -342.2051086 Eh     change       -0.1464098E+00 Eh
 * total energy  :  -343.2853564 Eh     change       -0.7471209E-05 Eh
 * total energy  :  -343.2853644 Eh     change       -0.7936178E-05 Eh
 * total energy  :  -343.2853728 Eh     change       -0.8412878E-05 Eh
 * total energy  :  -343.2853817 Eh     change       -0.8980552E-05 Eh
 * total energy  :  -343.2853912 Eh     change       -0.9453699E-05 Eh
 * total energy  :  -343.2854005 Eh     change       -0.9301257E-05 Eh
 * total energy  :  -343.2854088 Eh     change       -0.8290756E-05 Eh
 * total energy  :  -343.2854155 Eh     change       -0.6722401E-05 Eh
 * total energy  :  -343.2854205 Eh     change       -0.4999935E-05 Eh
   *** GEOMETRY OPTIMIZATION CONVERGED AFTER 120 ITERATIONS ***

 final structure:
================
205
 xtb: 6.5.1 (b24c23e)
Cu          36.02808931691462        0.03929241019751       -0.03395805566503
C           32.62228974137847        0.06282594424211       -0.04501731291831
C           33.25021966843698        0.98115800634525        0.78314915209706
C           32.56879876849224        1.88101786060431        1.66801189027715
C           33.52231238329299        2.60685393326053        2.30372911232242
C           34.79510296788507        2.16708289511151        1.80087108406280
N           34.59890399625854        1.17393543879626        0.88492892675346
C           36.03569372959925        2.67062406954329        2.20412115622818
C           36.03652726500874        3.79462272903994        3.16976916568220
C           35.40375900385519        5.00248833091525        2.86219877464058
C           35.40210849929400        6.04987704206379        3.76382897364865
C           36.02908835274399        5.91789849308564        5.00895313241436
N           35.94729855843043        6.97382985612386        5.90515009556213
C           36.94323228605090        7.10128181514068        6.96069489650425
C           36.65235729853347        4.70784937474635        5.32691934005506
C           36.65991439247571        3.66827381185587        4.41248010237030
C           37.27204328762726        2.18882660578046        1.76655614787340
C           38.54357617586876        2.75460613125253        2.11659832055908
C           39.49556659809466        2.01311202203807        1.49418925108229
N           37.46943787657459        1.12321490822160        0.92790925014239
C           38.81318607931339        0.99600674813545        0.75334560328760
C           39.45687465635059        0.01617257627255       -0.02389777358073
C           38.80464051300431       -0.95582412578675       -0.80379515972728
C           39.47758041973794       -1.98263883829170       -1.53988555641284
C           38.51934593272054       -2.71159145348812       -2.16745400361997
C           37.25358282349401       -2.12822363654054       -1.82545980522198
N           37.46037927124699       -1.06490823001948       -0.98620047130723
C           36.01353044525631       -2.59355795734930       -2.27006516906978
C           36.00591311510902       -3.72039501349927       -3.23251193139584
C           36.63609766430585       -3.60513349560688       -4.47281490410621
C           36.62476339350722       -4.64937232445081       -5.38190479193318
C           35.99120487365971       -5.85308033842637       -5.06028750252133
N           35.90868117585553       -6.91418848084485       -5.95037428431108
C           36.91256558909122       -7.05479398350524       -6.99679056540360
C           35.35562713368642       -5.97314282446802       -3.81836707368619
C           35.36078055129320       -4.92095492524087       -2.92233958217122
C           34.77751909024036       -2.07270685374221       -1.87524657233821
C           33.50206992366086       -2.49637774168719       -2.38505244073880
C           32.55456820643010       -1.75652363414633       -1.75652914192783
C           33.24265108662944       -0.86444925146991       -0.86888622149683
N           34.58918645377432       -1.07556026633441       -0.96202569124725
H           31.53703585457438        0.07021167995333       -0.04824681644979
H           31.49796417575345        1.93080295504757        1.78889592002000
H           33.38213717052372        3.36362377360681        3.05875098152371
H           34.92838530512206        5.12547803999675        1.89511353252332
H           34.91309141748318        6.98436964711130        3.50924344661506
H           35.75364989773018        7.85791225960224        5.45014190634694
H           37.96265312218958        7.07057734897284        6.55921814148716
H           36.82020544550021        6.29915552679469        7.68952694637831
H           36.78188501810865        8.05550717504637        7.46226912416882
H           37.12952151129772        4.56899067887709        6.28929808429940
H           37.13759986349677        2.73068751211323        4.67574729272168
H           38.68615061486638        3.62041610168193        2.74291367831048
H           40.56586592403964        2.14206948763586        1.52142636897039
H           40.54613696002739       -2.12636699908753       -1.56037238600544
H           38.65382201595611       -3.57955606485005       -2.79257126996891
H           37.12290953622949       -2.67286212472990       -4.73822522584120
H           37.10763736699751       -4.51945103691992       -6.34269025383378
H           35.70636816732191       -7.79395707151343       -5.49077006673455
H           36.79570677516416       -6.26123701904737       -7.73599096043650
H           36.75448409440739       -8.01481465839963       -7.48818387739126
H           37.92886705261855       -7.01983969444747       -6.58787250257505
H           34.85785382178244       -6.90235179231070       -3.56147001323641
H           34.87894319655866       -5.03466330603664       -1.95732122598201
H           33.35662356962646       -3.25290691640470       -3.13933654698861
H           31.48390229475926       -1.79212838756587       -1.88376516820177
Cu          62.96838677721986        0.01845017610649       -0.01554177443923
C           66.37417726347338        0.02214383002003       -0.04274050898007
C           65.74552364406449       -0.98710306936847       -0.75673564605762
C           66.42623393919146       -2.04755073505536       -1.44183059785192
C           65.47205884684712       -2.82752794896622       -2.00865577111828
C           64.19949938307042       -2.24122289649131       -1.68723306839522
N           64.39670694170182       -1.12932046210265       -0.92018688622244
C           62.95828234427297       -2.74691514095249       -2.08590606953072
C           62.95728413942089       -3.93797122051155       -2.96774998385062
C           63.58460052267920       -3.90371416181868       -4.21640684915874
C           63.58916305749459       -5.01607611003037       -5.03653997335576
C           62.97093496696260       -6.20408559017557       -4.62757640195601
N           63.05734478911182       -7.31317007759491       -5.45665254411864
C           62.06938846598906       -8.37750486263345       -5.34156166624643
C           62.35197012151770       -6.24749618095790       -3.37508849776553
C           62.34124812465937       -5.12430981515977       -2.56547576876033
C           61.72223482236083       -2.21476898040886       -1.71031831833770
C           60.45004616833348       -2.68339448980171       -2.18090184362040
C           59.49875188537679       -1.91119903310888       -1.59584406165458
N           61.52576539154101       -1.15942656201689       -0.85866509544757
C           60.18221329532905       -0.96117063500175       -0.77147117417054
C           59.53964826601919        0.01618533422476        0.00997187208138
C           60.19258687453424        0.99306803605492        0.78331072884242
C           59.52025844860426        1.93980397080530        1.62046041926611
C           60.47915820067931        2.71171472036427        2.19332781300864
C           61.74475958848908        2.24684574095134        1.70167165386848
N           61.53699349313948        1.19325063826064        0.85053229517164
C           62.98554041555050        2.78094272726168        2.05861828653372
C           62.99494620162891        3.96794032553769        2.94579339544677
C           62.36616814611619        5.15338357784282        2.56091432341274
C           62.38062596164566        6.27036115751844        3.37899590570511
C           63.01639508233530        6.22120690803626        4.62282103294078
N           63.10323279500276        7.32350812975537        5.46092745226380
C           62.10220708989500        8.37797184320376        5.36900870939961
C           63.65009198589426        5.03508828276317        5.01302761831802
C           63.64151186685606        3.92903142996401        4.18445489253421
C           64.22125212335087        2.27920117508110        1.63853819351791
C           65.49744696065120        2.86816742753046        1.93997335120939
C           66.44413038101037        2.09110108107191        1.35677358031662
C           65.75487360712248        1.02983759721182        0.68155655058873
N           64.40855685173445        1.16876731139240        0.86690343480931
H           67.45943701181321        0.02317553649130       -0.05129527998269
H           67.49709400745184       -2.17580880178932       -1.46607064578780
H           65.61165319904970       -3.72994891795048       -2.58185735736892
H           64.05390024945595       -2.98582982917606       -4.55346952821572
H           64.07420878292464       -4.97353409308271       -6.00614787618854
H           63.24704067930531       -7.06649195665363       -6.42061220370004
H           61.04690219953304       -7.98643926028062       -5.39600927726560
H           62.20059294035995       -8.90887823710028       -4.39806765091650
H           62.23173679414379       -9.07755398312178       -6.16116425927845
H           61.88110245057516       -7.15733990031019       -3.02347219891853
H           61.86726000987505       -5.17443633247068       -1.59111452764920
H           60.30667181463227       -3.48801020811917       -2.88397189565953
H           58.42825852159987       -1.96717646250242       -1.71351657471236
H           58.45162388296131        1.99346174408491        1.75487972021801
H           60.34510351678927        3.51376120631371        2.90113832618907
H           61.87816497493845        5.20768717822385        1.59372145322851
H           61.89874360214996        7.17965516503617        3.04115589247977
H           63.30753216356788        7.06943019883954        6.41999697501084
H           62.21810389368460        8.92274608299886        4.43114381156293
H           62.26457248153428        9.06932580172191        6.19592655027654
H           61.08480855862766        7.97454331886234        5.42826797408291
H           64.14938042184293        4.98861118476806        5.97519458110946
H           64.12209684866419        3.01198656421127        4.50759451779261
H           65.64405741728955        3.77033800343222        2.51183377290321
H           67.51495737519508        2.22174341574296        1.36382213440279
C           42.08513784314824        0.00291701186442       -0.02537049041582
C           40.86283915984266        0.00818102829418       -0.02182466536686
C           43.43487907178083       -0.00098783899234       -0.02489940332449
C           44.65731849432838       -0.00228134996513       -0.02600845403174
C           55.56164803806026        0.01845838946464        0.02406740229648
C           54.33920018658483        0.01875833758785        0.02271449088327
C           56.91138078581939        0.01836359771087        0.02274537623475
C           58.13369937122415        0.01694122365018        0.01799318749389
Cu          49.49804154727777        0.00998248575675       -0.00463076298943
C           46.06270908477720        0.00077115179736       -0.02130699714074
C           46.71775340160021       -1.01225113266483       -0.74525837817060
C           46.04786053547958       -2.07915818032110       -1.42450832601749
C           47.00911387915394       -2.84157752228956       -2.00664890791615
C           48.27252814247221       -2.23753268545396       -1.69441496389129
N           48.06229640090061       -1.12884692692134       -0.91791786085933
C           49.51561973754405       -2.72269932897995       -2.10971114460964
C           49.52482385232205       -3.89662703573974       -3.01405923567301
C           50.16987150253152       -5.07951366119625       -2.64180173190576
C           50.18076856666716       -6.17452829539702       -3.48477183862952
C           49.55636983762109       -6.11485483289995       -4.73664274385821
N           49.55535505803780       -7.25392281533474       -5.52926644318715
C           49.37974567808915       -7.12689817954288       -6.96996354195068
C           48.90361776649052       -4.93704186606219       -5.11118456804639
C           48.89031240634896       -3.84772705308563       -4.25658754026187
C           50.75218877758751       -2.18756109852599       -1.73799131188071
C           52.02248114265840       -2.63451184477302       -2.23296096224046
C           52.97406052266285       -1.87083556061180       -1.63664098773477
N           50.94865763787133       -1.15263608113183       -0.86254131935584
C           52.29123357787157       -0.94663511633106       -0.78355842179672
C           52.93385533784099        0.01652018998843        0.01584260425307
C           52.27846561400229        0.97777860046867        0.80690888502435
C           52.94769296845703        1.90625337181934        1.66611079176206
C           51.98628000596323        2.66806475613700        2.24894709753951
C           50.72362658001165        2.21496036334152        1.74022349425381
N           50.93427395899216        1.17887377824863        0.86952317558497
C           49.48067615464202        2.74520799504441        2.09716194226424
C           49.47411178366480        3.92046390793333        2.99989878050131
C           48.82848637361720        3.86866740885773        4.23653972752062
C           48.82612807869845        4.95915273177237        5.08971756841096
C           49.47365601348857        6.14118302550782        4.71944581623570
N           49.45693098960082        7.28142293410848        5.51032909096059
C           49.26950834262269        7.15504433530669        6.94959805941752
C           50.10918167675202        6.20361403268673        3.47332855119375
C           50.11419395724629        5.10730644104532        2.63191394004687
C           48.24445015436611        2.25319427737682        1.66986161834981
C           46.97485937180274        2.85055174938338        1.96954749387127
C           46.02338728453957        2.08200095479509        1.37954705876251
C           46.70555080229366        1.01812901401276        0.70773174506331
N           48.04769479042100        1.14249801160475        0.89267655454981
H           44.97955499777174       -2.22552128089343       -1.43930424280372
H           46.87732376729522       -3.74416524783638       -2.58117128026776
H           50.65032640380455       -5.14331595583124       -1.67156879865468
H           50.67571506739170       -7.09023167103794       -3.17862125913626
H           50.30069130148355       -7.89636735931467       -5.28839879806165
H           48.35879958746367       -6.81674987403109       -7.19634679991314
H           50.08059024283858       -6.40162942712933       -7.39919393073289
H           49.55425600073033       -8.10518821697997       -7.41793362436883
H           48.40383166935029       -4.86364154918724       -6.06930432410631
H           48.39651700392746       -2.93317593504265       -4.56693504344142
H           52.16561506384690       -3.41915540671655       -2.95823831531796
H           54.04370013801828       -1.91554011810494       -1.76612660831790
H           54.01557262419045        1.95499195764429        1.80818499387184
H           52.11764219934278        3.45541214025572        2.97353863081407
H           48.33824519119224        2.95105596782759        4.54345127022325
H           48.31811236199226        4.88331776693852        6.04329741238923
H           50.19997871410089        7.92873110113435        5.27545131444550
H           49.97473961081849        6.43879413324346        7.38669673503962
H           49.42842371051027        8.13612816070377        7.39725363272073
H           48.25023072226335        6.83345237352909        7.16714402237564
H           50.60019354549775        7.12249271498501        3.17040463607573
H           50.60312239751202        5.17321237694179        1.66605784472108
H           46.83258251502419        3.75297010173228        2.54180911318202
H           44.95423215166262        2.22253093818911        1.38438305169991

          :  Hamiltonian                  GFN1-xTB          :
         :: total energy            -343.285420511793 Eh    ::
         :: gradient norm              0.000226780257 Eh/a0 ::
         :: HOMO-LUMO gap              0.006079263688 eV    ::
         :: SCC energy              -348.610561990656 Eh    ::
         :: repulsion energy           5.502227328847 Eh    ::

    * Orbital Energies and Occupations

         #    Occupation            Energy/Eh            Energy/eV
      -------------------------------------------------------------
         1        2.0000           -0.7769669             -21.1423
       ...           ...                  ...                  ...
       307        2.0000           -0.3923272             -10.6758
       308        2.0000           -0.3910020             -10.6397
       309        2.0000           -0.3896321             -10.6024
       310        2.0000           -0.3895083             -10.5991
       311        2.0000           -0.3893470             -10.5947
       312        2.0000           -0.3863217             -10.5123
       313        2.0000           -0.3862575             -10.5106
       314        2.0000           -0.3859545             -10.5024
       315        2.0000           -0.3799593             -10.3392
       316        2.0000           -0.3745033             -10.1908
       317        2.0000           -0.3666645              -9.9774
       318        1.0770           -0.3468596              -9.4385
       319        1.0136           -0.3467237              -9.4348 (HOMO)
       320        0.9094           -0.3465003              -9.4288 (LUMO)
       321        0.0000           -0.3323051              -9.0425
       322                         -0.3224544              -8.7744
       323                         -0.3177153              -8.6455
       324                         -0.3176360              -8.6433
       325                         -0.3172050              -8.6316
       326                         -0.3136183              -8.5340
       327                         -0.2915170              -7.9326
       328                         -0.2836518              -7.7186
       329                         -0.2797606              -7.6127
       330                         -0.2543762              -6.9219
       ...                                ...                  ...
       687                          1.5260998              41.5273
      -------------------------------------------------------------
                  HL-Gap            0.0002234 Eh            0.0061 eV

Wiberg/Mayer (AO) data.
largest (>0.10) Wiberg bond orders for each atom

     #   Z sym  total        # sym  WBO       # sym  WBO       # sym  WBO
 ---------------------------------------------------------------------------
     1  29 Cu   2.190 --     7 N    0.505    41 N    0.505    20 N    0.503
                            27 N    0.503
     2   6 C    3.926 --    40 C    1.360     3 C    1.360    42 H    0.971
     3   6 C    3.918 --     2 C    1.360     7 N    1.228     4 C    1.173
     4   6 C    3.954 --     5 C    1.651     3 C    1.173    43 H    0.976
     5   6 C    3.958 --     4 C    1.651     6 C    1.175    44 H    0.973
     6   6 C    3.911 --     8 C    1.314     7 N    1.240     5 C    1.175
     7   7 N    3.242 --     6 C    1.240     3 C    1.228     1 Cu   0.505
     8   6 C    3.933 --    17 C    1.324     6 C    1.314     9 C    1.035
     9   6 C    3.988 --    16 C    1.384    10 C    1.374     8 C    1.035
    10   6 C    3.987 --    11 C    1.476     9 C    1.374    45 H    0.973
    11   6 C    3.989 --    10 C    1.476    12 C    1.345    46 H    0.971
    12   6 C    3.952 --    15 C    1.354    11 C    1.345    13 N    1.108
    13   7 N    3.178 --    12 C    1.108    14 C    0.971    47 H    0.931
    14   6 C    3.968 --    50 H    0.990    49 H    0.986    48 H    0.984
                            13 N    0.971
    15   6 C    3.990 --    16 C    1.464    12 C    1.354    51 H    0.970
    16   6 C    3.987 --    15 C    1.464     9 C    1.384    52 H    0.973
    17   6 C    3.907 --     8 C    1.324    20 N    1.222    18 C    1.182
    18   6 C    3.954 --    19 C    1.638    17 C    1.182    53 H    0.973
    19   6 C    3.956 --    18 C    1.638    21 C    1.190    54 H    0.974
    20   7 N    3.246 --    21 C    1.257    17 C    1.222     1 Cu   0.503
    21   6 C    3.899 --    22 C    1.257    20 N    1.257    19 C    1.190
    22   6 C    3.934 --    21 C    1.257    23 C    1.257   134 C    1.189
    23   6 C    3.899 --    22 C    1.257    27 N    1.257    24 C    1.190
    24   6 C    3.956 --    25 C    1.638    23 C    1.190    55 H    0.974
    25   6 C    3.954 --    24 C    1.638    26 C    1.182    56 H    0.973
    26   6 C    3.907 --    28 C    1.324    27 N    1.222    25 C    1.182
    27   7 N    3.246 --    23 C    1.257    26 C    1.222     1 Cu   0.503
    28   6 C    3.933 --    26 C    1.324    37 C    1.315    29 C    1.035
    29   6 C    3.988 --    30 C    1.384    36 C    1.374    28 C    1.035
    30   6 C    3.988 --    31 C    1.464    29 C    1.384    57 H    0.973
    31   6 C    3.990 --    30 C    1.464    32 C    1.354    58 H    0.970
    32   6 C    3.952 --    31 C    1.354    35 C    1.345    33 N    1.108
    33   7 N    3.178 --    32 C    1.108    34 C    0.971    59 H    0.931
    34   6 C    3.968 --    61 H    0.990    60 H    0.986    62 H    0.984
                            33 N    0.971
    35   6 C    3.989 --    36 C    1.476    32 C    1.345    63 H    0.971
    36   6 C    3.987 --    35 C    1.476    29 C    1.374    64 H    0.973
    37   6 C    3.911 --    28 C    1.315    41 N    1.240    38 C    1.175
    38   6 C    3.958 --    39 C    1.651    37 C    1.175    65 H    0.973
    39   6 C    3.954 --    38 C    1.651    40 C    1.173    66 H    0.976
    40   6 C    3.918 --     2 C    1.360    41 N    1.228    39 C    1.173
    41   7 N    3.242 --    37 C    1.240    40 C    1.228     1 Cu   0.505
    42   1 H    1.002 --     2 C    0.971
    43   1 H    0.998 --     4 C    0.976
    44   1 H    1.006 --     5 C    0.973
    45   1 H    1.005 --    10 C    0.973
    46   1 H    0.999 --    11 C    0.971
    47   1 H    0.966 --    13 N    0.931
    48   1 H    1.003 --    14 C    0.984
    49   1 H    1.012 --    14 C    0.986
    50   1 H    1.007 --    14 C    0.990
    51   1 H    1.001 --    15 C    0.970
    52   1 H    1.005 --    16 C    0.973
    53   1 H    1.006 --    18 C    0.973
    54   1 H    1.002 --    19 C    0.974
    55   1 H    1.003 --    24 C    0.974
    56   1 H    1.006 --    25 C    0.973
    57   1 H    1.005 --    30 C    0.973
    58   1 H    1.001 --    31 C    0.970
    59   1 H    0.966 --    33 N    0.931
    60   1 H    1.012 --    34 C    0.986
    61   1 H    1.007 --    34 C    0.990
    62   1 H    1.003 --    34 C    0.984
    63   1 H    0.999 --    35 C    0.971
    64   1 H    1.005 --    36 C    0.973
    65   1 H    1.005 --    38 C    0.973
    66   1 H    0.998 --    39 C    0.976
    67  29 Cu   2.186 --    73 N    0.505   107 N    0.505    93 N    0.502
                            86 N    0.502
    68   6 C    3.926 --    69 C    1.360   106 C    1.360   108 H    0.971
    69   6 C    3.918 --    68 C    1.360    73 N    1.229    70 C    1.173
    70   6 C    3.954 --    71 C    1.652    69 C    1.173   109 H    0.976
    71   6 C    3.958 --    70 C    1.652    72 C    1.175   110 H    0.973
    72   6 C    3.911 --    74 C    1.315    73 N    1.241    71 C    1.175
    73   7 N    3.242 --    72 C    1.241    69 C    1.229    67 Cu   0.505
    74   6 C    3.933 --    83 C    1.324    72 C    1.315    75 C    1.035
    75   6 C    3.988 --    82 C    1.385    76 C    1.374    74 C    1.035
    76   6 C    3.987 --    77 C    1.476    75 C    1.374   111 H    0.973
    77   6 C    3.989 --    76 C    1.476    78 C    1.345   112 H    0.971
    78   6 C    3.952 --    81 C    1.354    77 C    1.345    79 N    1.108
    79   7 N    3.178 --    78 C    1.108    80 C    0.972   113 H    0.931
    80   6 C    3.968 --   116 H    0.990   115 H    0.986   114 H    0.984
                            79 N    0.972
    81   6 C    3.990 --    82 C    1.464    78 C    1.354   117 H    0.970
    82   6 C    3.987 --    81 C    1.464    75 C    1.385   118 H    0.973
    83   6 C    3.907 --    74 C    1.324    86 N    1.222    84 C    1.182
    84   6 C    3.954 --    85 C    1.638    83 C    1.182   119 H    0.973
    85   6 C    3.956 --    84 C    1.638    87 C    1.189   120 H    0.974
    86   7 N    3.246 --    87 C    1.257    83 C    1.222    67 Cu   0.502
    87   6 C    3.899 --    86 N    1.257    88 C    1.257    85 C    1.189
    88   6 C    3.934 --    87 C    1.257    89 C    1.257   140 C    1.189
    89   6 C    3.899 --    93 N    1.257    88 C    1.257    90 C    1.190
    90   6 C    3.956 --    91 C    1.638    89 C    1.190   121 H    0.974
    91   6 C    3.954 --    90 C    1.638    92 C    1.182   122 H    0.973
    92   6 C    3.907 --    94 C    1.324    93 N    1.222    91 C    1.182
    93   7 N    3.246 --    89 C    1.257    92 C    1.222    67 Cu   0.502
    94   6 C    3.933 --    92 C    1.324   103 C    1.315    95 C    1.035
    95   6 C    3.988 --    96 C    1.384   102 C    1.374    94 C    1.035
    96   6 C    3.987 --    97 C    1.464    95 C    1.384   123 H    0.973
    97   6 C    3.990 --    96 C    1.464    98 C    1.354   124 H    0.970
    98   6 C    3.952 --    97 C    1.354   101 C    1.345    99 N    1.108
    99   7 N    3.178 --    98 C    1.108   100 C    0.972   125 H    0.931
   100   6 C    3.968 --   127 H    0.990   126 H    0.986   128 H    0.984
                            99 N    0.972
   101   6 C    3.989 --   102 C    1.476    98 C    1.345   129 H    0.971
   102   6 C    3.987 --   101 C    1.476    95 C    1.374   130 H    0.973
   103   6 C    3.911 --    94 C    1.315   107 N    1.241   104 C    1.175
   104   6 C    3.958 --   105 C    1.652   103 C    1.175   131 H    0.973
   105   6 C    3.954 --   104 C    1.652   106 C    1.173   132 H    0.976
   106   6 C    3.918 --    68 C    1.360   107 N    1.229   105 C    1.173
   107   7 N    3.242 --   103 C    1.241   106 C    1.229    67 Cu   0.505
   108   1 H    1.002 --    68 C    0.971
   109   1 H    0.998 --    70 C    0.976
   110   1 H    1.006 --    71 C    0.973
   111   1 H    1.005 --    76 C    0.973
   112   1 H    0.999 --    77 C    0.971
   113   1 H    0.966 --    79 N    0.931
   114   1 H    1.003 --    80 C    0.984
   115   1 H    1.012 --    80 C    0.986
   116   1 H    1.007 --    80 C    0.990
   117   1 H    1.001 --    81 C    0.970
   118   1 H    1.005 --    82 C    0.973
   119   1 H    1.006 --    84 C    0.973
   120   1 H    1.003 --    85 C    0.974
   121   1 H    1.003 --    90 C    0.974
   122   1 H    1.006 --    91 C    0.973
   123   1 H    1.005 --    96 C    0.973
   124   1 H    1.001 --    97 C    0.970
   125   1 H    0.966 --    99 N    0.931
   126   1 H    1.012 --   100 C    0.986
   127   1 H    1.007 --   100 C    0.990
   128   1 H    1.004 --   100 C    0.984
   129   1 H    0.999 --   101 C    0.971
   130   1 H    1.005 --   102 C    0.973
   131   1 H    1.005 --   104 C    0.973
   132   1 H    0.998 --   105 C    0.976
   133   6 C    3.934 --   134 C    2.475   135 C    1.309
   134   6 C    3.924 --   133 C    2.475    22 C    1.189   136 C    0.199
   135   6 C    3.932 --   136 C    2.473   133 C    1.309
   136   6 C    3.926 --   135 C    2.473   142 C    1.191   134 C    0.199
   137   6 C    3.932 --   138 C    2.473   139 C    1.309
   138   6 C    3.926 --   137 C    2.473   162 C    1.191   140 C    0.199
   139   6 C    3.934 --   140 C    2.475   137 C    1.309
   140   6 C    3.924 --   139 C    2.475    88 C    1.189   138 C    0.199
   141  29 Cu   2.163 --   181 N    0.498   147 N    0.498   160 N    0.498
                           167 N    0.498
   142   6 C    3.923 --   143 C    1.255   180 C    1.255   136 C    1.191
   143   6 C    3.900 --   147 N    1.259   142 C    1.255   144 C    1.190
   144   6 C    3.954 --   145 C    1.636   143 C    1.190   182 H    0.974
   145   6 C    3.955 --   144 C    1.636   146 C    1.184   183 H    0.973
   146   6 C    3.905 --   148 C    1.320   147 N    1.223   145 C    1.184
   147   7 N    3.239 --   143 C    1.259   146 C    1.223   141 Cu   0.498
   148   6 C    3.929 --   146 C    1.320   157 C    1.319   149 C    1.035
   149   6 C    3.988 --   156 C    1.384   150 C    1.373   148 C    1.035
   150   6 C    3.988 --   151 C    1.476   149 C    1.373   184 H    0.973
   151   6 C    3.989 --   150 C    1.476   152 C    1.346   185 H    0.971
   152   6 C    3.952 --   155 C    1.354   151 C    1.346   153 N    1.107
   153   7 N    3.177 --   152 C    1.107   154 C    0.972   186 H    0.931
   154   6 C    3.968 --   189 H    0.990   187 H    0.986   188 H    0.984
                           153 N    0.972
   155   6 C    3.989 --   156 C    1.464   152 C    1.354   190 H    0.970
   156   6 C    3.987 --   155 C    1.464   149 C    1.384   191 H    0.973
   157   6 C    3.905 --   148 C    1.319   160 N    1.223   158 C    1.184
   158   6 C    3.955 --   159 C    1.636   157 C    1.184   192 H    0.973
   159   6 C    3.954 --   158 C    1.636   161 C    1.191   193 H    0.974
   160   7 N    3.239 --   161 C    1.259   157 C    1.223   141 Cu   0.498
   161   6 C    3.900 --   160 N    1.259   162 C    1.255   159 C    1.191
   162   6 C    3.923 --   163 C    1.255   161 C    1.255   138 C    1.191
   163   6 C    3.900 --   167 N    1.259   162 C    1.255   164 C    1.191
   164   6 C    3.954 --   165 C    1.636   163 C    1.191   194 H    0.974
   165   6 C    3.955 --   164 C    1.636   166 C    1.184   195 H    0.973
   166   6 C    3.905 --   168 C    1.319   167 N    1.223   165 C    1.184
   167   7 N    3.239 --   163 C    1.259   166 C    1.223   141 Cu   0.498
   168   6 C    3.929 --   177 C    1.320   166 C    1.319   169 C    1.035
   169   6 C    3.988 --   170 C    1.384   176 C    1.374   168 C    1.035
   170   6 C    3.987 --   171 C    1.464   169 C    1.384   196 H    0.973
   171   6 C    3.990 --   170 C    1.464   172 C    1.354   197 H    0.970
   172   6 C    3.952 --   171 C    1.354   175 C    1.346   173 N    1.107
   173   7 N    3.177 --   172 C    1.107   174 C    0.972   198 H    0.931
   174   6 C    3.968 --   200 H    0.990   201 H    0.986   199 H    0.984
                           173 N    0.972
   175   6 C    3.989 --   176 C    1.476   172 C    1.346   202 H    0.971
   176   6 C    3.988 --   175 C    1.476   169 C    1.374   203 H    0.973
   177   6 C    3.905 --   168 C    1.320   181 N    1.223   178 C    1.184
   178   6 C    3.955 --   179 C    1.637   177 C    1.184   204 H    0.973
   179   6 C    3.954 --   178 C    1.637   180 C    1.190   205 H    0.974
   180   6 C    3.900 --   181 N    1.259   142 C    1.255   179 C    1.190
   181   7 N    3.239 --   180 C    1.259   177 C    1.223   141 Cu   0.498
   182   1 H    1.002 --   144 C    0.974
   183   1 H    1.005 --   145 C    0.973
   184   1 H    1.005 --   150 C    0.973
   185   1 H    0.999 --   151 C    0.971
   186   1 H    0.966 --   153 N    0.931
   187   1 H    1.012 --   154 C    0.986
   188   1 H    1.003 --   154 C    0.984
   189   1 H    1.007 --   154 C    0.990
   190   1 H    1.001 --   155 C    0.970
   191   1 H    1.006 --   156 C    0.973
   192   1 H    1.006 --   158 C    0.973
   193   1 H    1.003 --   159 C    0.974
   194   1 H    1.002 --   164 C    0.974
   195   1 H    1.006 --   165 C    0.973
   196   1 H    1.006 --   170 C    0.973
   197   1 H    1.001 --   171 C    0.970
   198   1 H    0.966 --   173 N    0.931
   199   1 H    1.003 --   174 C    0.984
   200   1 H    1.007 --   174 C    0.990
   201   1 H    1.012 --   174 C    0.986
   202   1 H    0.999 --   175 C    0.971
   203   1 H    1.005 --   176 C    0.973
   204   1 H    1.005 --   178 C    0.973
   205   1 H    1.002 --   179 C    0.974
 ---------------------------------------------------------------------------

           -------------------------------------------------
          | TOTAL ENERGY             -343.285420511793 Eh   |
          | GRADIENT NORM               0.000226780257 Eh/α |
          | HOMO-LUMO GAP               0.006079263688 eV   |
           -------------------------------------------------

 * finished run on 2022/07/30 at 06:07:29.706
