   * xtb version 6.5.1 (b24c23e) compiled by 'conda@728c89f4b128' on 2022-07-12
          program call               : xtb Zn_PhOH_C8_3.xyz --gfn 1 --opt -T 48

   ID    Z sym.   atoms
    1   30 Zn     1, 59, 133
    2    6 C      2-6, 8-12, 14-18, 20-25, 27-31, 33-38, 60-64, 66-70, 72-76,
                  78-83, 85-89, 91-96, 117-132, 134-138, 140-144, 146-150,
                  152-157, 159-163, 165-170
    3    7 N      7, 19, 26, 39, 65, 77, 84, 97, 139, 151, 158, 171
    4    8 O      13, 32, 71, 90, 145, 164
    5    1 H      40-58, 98-116, 172-189

          :  Hamiltonian                  GFN1-xTB          :
 * total energy  :  -334.3806805 Eh     change       -0.1442481E-07 Eh
 * total energy  :  -334.8290502 Eh     change       -0.4483697E+00 Eh
 * total energy  :  -334.9816717 Eh     change       -0.1526215E+00 Eh
 * total energy  :  -335.0612626 Eh     change       -0.7959090E-01 Eh
 * total energy  :  -335.1286730 Eh     change       -0.6741042E-01 Eh
 * total energy  :  -335.1985661 Eh     change       -0.6989309E-01 Eh
 * total energy  :  -335.2591519 Eh     change       -0.6058580E-01 Eh
 * total energy  :  -335.2935211 Eh     change       -0.3436924E-01 Eh
 * total energy  :  -335.3202483 Eh     change       -0.2672719E-01 Eh
 * total energy  :  -335.3394589 Eh     change       -0.1921057E-01 Eh
 * total energy  :  -335.4332536 Eh     change        0.1921380E-04 Eh
 * total energy  :  -335.4333005 Eh     change       -0.4687778E-04 Eh
 * total energy  :  -335.4333090 Eh     change       -0.8532195E-05 Eh
 * total energy  :  -335.4333297 Eh     change       -0.2062338E-04 Eh
 * total energy  :  -335.4333412 Eh     change       -0.1152228E-04 Eh
 * total energy  :  -335.4333555 Eh     change       -0.1431834E-04 Eh
 * total energy  :  -335.4333689 Eh     change       -0.1341984E-04 Eh
 * total energy  :  -335.4333753 Eh     change       -0.6369461E-05 Eh
 * total energy  :  -335.4333794 Eh     change       -0.4160032E-05 Eh
   *** GEOMETRY OPTIMIZATION CONVERGED AFTER 58 ITERATIONS ***

 final structure:
================
189
 xtb: 6.5.1 (b24c23e)
Zn          25.97403856397128       -0.01635179729616       -0.02801126883803
C           22.56550292190554       -0.07036609470011       -0.10340257541419
C           23.20170034453106       -1.30357818435139       -0.02639236609764
C           22.53412713822346       -2.57151523526115        0.06678695180255
C           23.49812175418089       -3.52260458558549        0.14863792497362
C           24.76776234854454       -2.84749827161582        0.09494931232877
N           24.55223338889960       -1.50401078252725       -0.00423045261786
C           26.02209820444116       -3.46725547769463        0.16188602046542
C           26.04383083386317       -4.94892851960450        0.25531834936071
C           25.51220383602390       -5.73358231263268       -0.76840454399643
C           25.53507111527763       -7.11744815046149       -0.68584224603845
C           26.08788870982334       -7.73381891117265        0.43413862041828
O           26.12801017604334       -9.08622227268422        0.55719863544692
C           26.61867734187116       -6.96207241905197        1.46598324059084
C           26.59773050073361       -5.58182265852192        1.37085212505085
C           27.25688444250805       -2.80954870456063        0.14862511162735
C           28.54035898047159       -3.45550996914906        0.15953567885749
C           29.48137550470820       -2.47799277511013        0.11826702127307
N           27.44351241559820       -1.45370252235656        0.09007993993711
C           28.78406110220325       -1.22642052212175        0.07529076889695
C           29.40879668082441        0.03619191977613        0.01652258160590
C           28.74789927544014        1.27994738027959       -0.04492818730859
C           29.40833913841914        2.54946141682420       -0.12583783206694
C           28.43905133837139        3.49833277608211       -0.18066714207089
C           27.17496345743942        2.81711708359629       -0.12726855813132
N           27.40126498728396        1.46821976349088       -0.05209497911050
C           25.92124494968921        3.43617868986028       -0.17826540167917
C           25.89884112598619        4.91998798027871       -0.22535941854094
C           26.43242276343475        5.67011753696335        0.82560262802693
C           26.41040902983792        7.05317374729278        0.79306973347991
C           25.85595508688930        7.70961468338612       -0.30405388607117
O           25.85308645857459        9.06815611580369       -0.30565454067688
C           25.32365553011902        6.97565488843784       -1.36131696561592
C           25.34408123231804        5.58998474205381       -1.31604243155753
C           24.68584601759371        2.77597221417796       -0.18455753069750
C           23.39679197111845        3.41532186335807       -0.19749885460861
C           22.46129257258215        2.43287238336468       -0.18443498434622
C           23.16589737837600        1.18215002509064       -0.15149336317808
N           24.50996193436268        1.42341210116855       -0.15051517280258
H           21.47992122930982       -0.08623508478630       -0.11088994839913
H           21.46355183150941       -2.70470047888812        0.07690816860827
H           23.36525215741008       -4.58790957613535        0.25004262812737
H           25.09312323962576       -5.25549441759641       -1.64690726922546
H           25.12694135151193       -7.72230273818290       -1.48860539144386
H           25.73530295882963       -9.52073484130829       -0.21173081937541
H           27.04161616307447       -7.45463819490922        2.33284805310320
H           27.00032158045507       -4.98141508889032        2.17908644000481
H           28.69983352987986       -4.52156485679311        0.18083747565927
H           30.55418987547080       -2.58755868007068        0.11147852179370
H           30.47755350215254        2.68891106782771       -0.14451129782587
H           28.56723663787679        4.56547218277549       -0.26525754288660
H           26.85292510386628        5.15952260478927        1.68481732918313
H           26.81730994867665        7.63644519564123        1.60986294298536
H           25.44651809834171        9.41799311887159       -1.10972887240379
H           24.89722883463837        7.49093444821699       -2.21541017033247
H           24.94082561444317        5.02031690993917       -2.14599997402584
H           23.23219638028469        4.48099443833551       -0.20209430843425
H           21.38725320704677        2.53484335718156       -0.18717430936829
Zn          63.21103545251192        0.00082069683315       -0.01249447183695
C           66.61861120479607        0.04624241834858       -0.12653323091140
C           65.98045267347111        1.27726915801194       -0.22011052020471
C           66.64614972394601        2.54593528064424       -0.31632095160701
C           65.68094909110802        3.49827131747212       -0.36117208664521
C           64.41231980206641        2.82158597764771       -0.30373154311717
N           64.62975589767846        1.47787898508063       -0.21234897689852
C           63.15755259624492        3.44414504972304       -0.31064853821074
C           63.13432079826779        4.92362111956375       -0.43344046347892
C           63.65261345320221        5.54989587134179       -1.56727143748097
C           63.62859940867618        6.93091665874579       -1.68801963173743
C           63.08799055578211        7.70471428641777       -0.66388645625191
O           63.04723566743504        9.06056716130272       -0.73963789868287
C           62.57059835922254        7.09243334166044        0.47604930700977
C           62.59264210811761        5.71311240790698        0.58390522352085
C           61.92417723425007        2.79095574502676       -0.21309285818537
C           60.63941873469759        3.43143003048003       -0.27564423912924
C           59.70026468085715        2.45735992843301       -0.16664505865518
N           61.73997507037217        1.44023284891085       -0.07792893436310
C           60.39989685350452        1.21238731513396       -0.04381104372709
C           59.77724383567051       -0.04720417753091        0.07319673392410
C           60.43988895823063       -1.28772291091713        0.17071611214594
C           59.78116004318661       -2.55712010172066        0.26619194372427
C           60.75174465168182       -3.50379197140906        0.33458516103511
C           62.01495571060628       -2.82048429877913        0.28779350153697
N           61.78677191062698       -1.47407362759208        0.18015283373570
C           63.26945168769063       -3.43946052668009        0.31618493458475
C           63.29477376760558       -4.91535216002355        0.47533291651004
C           62.76567064648657       -5.51330780287519        1.62187142439151
C           62.79235852318811       -6.88728657646940        1.78247243670119
C           63.34719050830309       -7.68862120920562        0.78643342284817
O           63.35556397352899       -9.03399477611716        0.97483965756429
C           63.87431446656192       -7.10768059712772       -0.36442360421693
C           63.84912889972932       -5.72932097662797       -0.51283037533624
C           64.50362186592348       -2.78511735438495        0.21155543442437
C           65.79387001780032       -3.41848448586649        0.28023106650163
C           66.72743890389732       -2.44301988391511        0.14803673698134
C           66.02051838778449       -1.20094004683744        0.00914606373149
N           64.67700072037827       -1.44099789662197        0.05416304042876
H           67.70404330496429        0.06185941530753       -0.14627937981437
H           67.71647159986804        2.67994532095828       -0.33687616603562
H           65.81252489357912        4.56721718820551       -0.41451967888326
H           64.06211561553933        4.94822638839655       -2.37119035590004
H           64.02640427332953        7.41157381036886       -2.57546587524593
H           63.43041405421344        9.37788381649717       -1.56833882887642
H           62.15709090313407        7.70674427629825        1.26635415579794
H           62.20071386694195        5.23766793998743        1.47616696500838
H           60.47761903585855        4.48978892200828       -0.40225057719026
H           58.62721190859828        2.56439444735684       -0.17462010952220
H           58.71208365545429       -2.69870588579969        0.27330766573578
H           60.62494865119616       -4.57268526889189        0.39591514856887
H           62.34525350664487       -4.88919529814172        2.40258794552533
H           62.38914437356021       -7.35224367098681        2.67363244926142
H           63.76235282138275       -9.49145392193120        0.22686684484811
H           64.30071194354427       -7.73569107445882       -1.13941995741240
H           64.24845391454670       -5.27982114554544       -1.41530605895123
H           65.96072000560892       -4.47392424228008        0.42507512885314
H           67.80163956363907       -2.54322065478413        0.15209549324021
C           30.81376187694144        0.05448003126264        0.00838335975476
C           32.03858998740707        0.06177755928709       -0.00294141351917
C           33.38117098460140        0.06889981236409       -0.01760657823622
C           34.61202997400157        0.07005084373262       -0.03355309792136
C           35.94987032329315        0.06861453561015       -0.04782104719017
C           37.18084883972380        0.06330909493703       -0.06027077587089
C           38.52328801016316        0.05568314615293       -0.07015397288347
C           39.74835490007713        0.04716598818197       -0.07714910955379
C           49.43789295882353       -0.06935715311912        0.01512234155781
C           50.66286012570875       -0.08242143615223        0.02702084322840
C           52.00522416363099       -0.09148762702750        0.04127393147447
C           53.23611184441905       -0.09057934507505        0.05848814400385
C           54.57394122293854       -0.08994565540929        0.06952739990198
C           55.80487871819486       -0.08761722877929        0.07678455812566
C           57.14749141497006       -0.07957662159145        0.08113358847997
C           58.37231398867925       -0.06716965938200        0.07993135708827
Zn          44.59336979747317       -0.00421085147835       -0.04394280090505
C           41.15274583955290        0.03626824063677       -0.07502696821768
C           41.80348001314639        1.09583823448122        0.58989944330671
C           41.13262338289687        2.15877177243833        1.27754774102694
C           42.09429773919952        2.97498215709859        1.78045045856979
C           43.36255782477572        2.42133965434967        1.39671135034198
N           43.14846528020920        1.27405624846704        0.68017403639494
C           44.61195104574565        2.95848158456265        1.72621203008430
C           44.62130378139445        4.23320445579909        2.48782039150235
C           45.18160629331951        4.29298261301300        3.76606586693723
C           45.19208896147209        5.47756017406396        4.48105568545769
C           44.64499500961566        6.62911268403909        3.91831393356265
O           44.67629614317676        7.77633630725982        4.64481722171268
C           44.08555571579394        6.58568113853342        2.64348314358791
C           44.07235281912903        5.39205294754377        1.93836750369470
C           45.85424546138038        2.40128205473154        1.40302245985197
C           47.12984095701427        2.98861328718864        1.70335366792633
C           48.08099842676691        2.14783835750500        1.22154254417114
N           46.05353910700982        1.22401274477714        0.73230420732269
C           47.39639707619013        1.04517976843844        0.61478759199472
C           48.03368053031875       -0.05150884825918       -0.00108014314285
C           47.38220662456765       -1.13005296321484       -0.63399853644040
C           48.05110866663106       -2.25085590705525       -1.22460301597670
C           47.08968667809074       -3.06231038776629       -1.73559435738563
C           45.82376174402707       -2.43863897988619       -1.46931614294729
N           46.03845589989044       -1.27009593185313       -0.78829737541963
C           44.57515831348447       -2.95659275437390       -1.83200361888239
C           44.56876076399888       -4.21985007304818       -2.61194510424569
C           43.95740840871128       -5.36683839514207       -2.10491566471059
C           43.95105516312795       -6.54714275917072       -2.83224608580966
C           44.55479043882943       -6.58934065384502       -4.08674191836491
O           44.56755441745051       -7.72315522021591       -4.83459858218335
C           45.16704664307022       -5.45032052293239       -4.60619195967359
C           45.17442484861225       -4.27914328455579       -3.86955930323231
C           43.33298619690436       -2.38777779902910       -1.52820394069460
C           42.05943099319406       -2.90351225200786       -1.94582045995455
C           41.10807331543688       -2.07107523864001       -1.44981052496319
C           41.79087139110772       -1.03325094601444       -0.73634221926573
N           43.13272128939351       -1.24339185078117       -0.80285285520994
H           40.06247927527370        2.25795518385671        1.36652807347102
H           41.95780718380254        3.86674410750357        2.37076870262625
H           45.59726784253957        3.39449402400429        4.20841657805248
H           45.61956272927609        5.52467676805773        5.47499021685438
H           44.26987116380528        8.50903492712790        4.16281970068244
H           43.66460204088557        7.48551406363196        2.20779857376423
H           43.64725286671813        5.36232010396856        0.94121584205445
H           47.27810148243244        3.93016721220253        2.20709832531550
H           49.15252419637034        2.26172359391575        1.26336139848731
H           49.11964190970846       -2.39591361149713       -1.23672144773206
H           47.22467011324675       -4.00727110142721       -2.23661621976374
H           43.49788172674231       -5.33928433879893       -1.12310783701479
H           43.47987864628151       -7.43751706902218       -2.42982815613614
H           44.11415591222197       -8.44748161413554       -4.38288814065077
H           45.62962679777709       -5.49625804527239       -5.58434873702142
H           45.63977855511217       -3.38962967834878       -4.27937828723556
H           41.91242557281845       -3.78243397133848       -2.55259630175839
H           40.03783111569834       -2.14210273641199       -1.56174955033249

          :  Hamiltonian                  GFN1-xTB          :
         :: total energy            -335.433379449264 Eh    ::
         :: gradient norm              0.000436355071 Eh/a0 ::
         :: HOMO-LUMO gap              0.961044723692 eV    ::
         :: SCC energy              -340.914812750058 Eh    ::
         :: repulsion energy           5.647314887322 Eh    ::

    * Orbital Energies and Occupations

         #    Occupation            Energy/Eh            Energy/eV
      -------------------------------------------------------------
         1        2.0000           -0.8038762             -21.8746
       ...           ...                  ...                  ...
       291        2.0000           -0.4170882             -11.3495
       292        2.0000           -0.4167447             -11.3402
       293        2.0000           -0.4163481             -11.3294
       294        2.0000           -0.4115282             -11.1983
       295        2.0000           -0.4059845             -11.0474
       296        2.0000           -0.4037274             -10.9860
       297        2.0000           -0.4021357             -10.9427
       298        2.0000           -0.3930098             -10.6943
       299        2.0000           -0.3922619             -10.6740
       300        2.0000           -0.3918815             -10.6636
       301        2.0000           -0.3827108             -10.4141
       302        2.0000           -0.3788064             -10.3078
       303        2.0000           -0.3734388             -10.1618 (HOMO)
       304                         -0.3381210              -9.2007 (LUMO)
       305                         -0.3306113              -8.9964
       306                         -0.3266985              -8.8899
       307                         -0.3248897              -8.8407
       308                         -0.3244277              -8.8281
       309                         -0.3240528              -8.8179
       310                         -0.3047278              -8.2921
       311                         -0.2967484              -8.0749
       312                         -0.2964074              -8.0657
       313                         -0.2907541              -7.9118
       314                         -0.2868732              -7.8062
       ...                                ...                  ...
       644                          1.6095468              43.7980
      -------------------------------------------------------------
                  HL-Gap            0.0353177 Eh            0.9610 eV

Wiberg/Mayer (AO) data.
largest (>0.10) Wiberg bond orders for each atom

     #   Z sym  total        # sym  WBO       # sym  WBO       # sym  WBO
 ---------------------------------------------------------------------------
     1  30 Zn   1.998 --    39 N    0.460     7 N    0.459    19 N    0.456
                            26 N    0.456
     2   6 C    3.926 --     3 C    1.357    38 C    1.357    40 H    0.971
     3   6 C    3.923 --     2 C    1.357     7 N    1.233     4 C    1.172
     4   6 C    3.960 --     5 C    1.657     3 C    1.172    41 H    0.976
     5   6 C    3.963 --     4 C    1.657     6 C    1.173    42 H    0.973
     6   6 C    3.917 --     8 C    1.312     7 N    1.245     5 C    1.173
     7   7 N    3.294 --     6 C    1.245     3 C    1.233     1 Zn   0.459
     8   6 C    3.934 --    16 C    1.325     6 C    1.312     9 C    1.028
     9   6 C    3.989 --    10 C    1.394    15 C    1.384     8 C    1.028
    10   6 C    3.987 --    11 C    1.451     9 C    1.394    43 H    0.973
                            14 C    0.105
    11   6 C    3.988 --    10 C    1.451    12 C    1.373    44 H    0.970
                            15 C    0.103
    12   6 C    3.901 --    11 C    1.373    14 C    1.365    13 O    1.039
    13   8 O    2.042 --    12 C    1.039    45 H    0.865
    14   6 C    3.990 --    15 C    1.466    12 C    1.365    46 H    0.971
                            10 C    0.105
    15   6 C    3.988 --    14 C    1.466     9 C    1.384    47 H    0.973
                            11 C    0.103
    16   6 C    3.913 --     8 C    1.325    19 N    1.224    17 C    1.179
    17   6 C    3.960 --    18 C    1.646    16 C    1.179    48 H    0.973
    18   6 C    3.962 --    17 C    1.646    20 C    1.186    49 H    0.974
    19   7 N    3.297 --    20 C    1.264    16 C    1.224     1 Zn   0.456
    20   6 C    3.902 --    19 N    1.264    21 C    1.252    18 C    1.186
    21   6 C    3.938 --    22 C    1.253    20 C    1.252   117 C    1.193
    22   6 C    3.902 --    26 N    1.264    21 C    1.253    23 C    1.186
    23   6 C    3.962 --    24 C    1.646    22 C    1.186    50 H    0.974
    24   6 C    3.960 --    23 C    1.646    25 C    1.179    51 H    0.973
    25   6 C    3.913 --    27 C    1.325    26 N    1.224    24 C    1.179
    26   7 N    3.297 --    22 C    1.264    25 C    1.224     1 Zn   0.456
    27   6 C    3.934 --    25 C    1.325    35 C    1.312    28 C    1.028
    28   6 C    3.989 --    34 C    1.394    29 C    1.384    27 C    1.028
    29   6 C    3.988 --    30 C    1.466    28 C    1.384    52 H    0.973
                            33 C    0.103
    30   6 C    3.990 --    29 C    1.466    31 C    1.365    53 H    0.971
                            34 C    0.105
    31   6 C    3.901 --    33 C    1.373    30 C    1.365    32 O    1.039
    32   8 O    2.042 --    31 C    1.039    54 H    0.865
    33   6 C    3.988 --    34 C    1.451    31 C    1.373    55 H    0.970
                            29 C    0.103
    34   6 C    3.987 --    33 C    1.451    28 C    1.394    56 H    0.973
                            30 C    0.105
    35   6 C    3.917 --    27 C    1.312    39 N    1.245    36 C    1.173
    36   6 C    3.963 --    37 C    1.657    35 C    1.173    57 H    0.973
    37   6 C    3.960 --    36 C    1.657    38 C    1.172    58 H    0.976
    38   6 C    3.923 --     2 C    1.357    39 N    1.233    37 C    1.172
    39   7 N    3.294 --    35 C    1.245    38 C    1.233     1 Zn   0.460
    40   1 H    1.002 --     2 C    0.971
    41   1 H    0.998 --     4 C    0.976
    42   1 H    1.005 --     5 C    0.973
    43   1 H    1.005 --    10 C    0.973
    44   1 H    0.999 --    11 C    0.970
    45   1 H    0.887 --    13 O    0.865
    46   1 H    0.999 --    14 C    0.971
    47   1 H    1.005 --    15 C    0.973
    48   1 H    1.005 --    17 C    0.973
    49   1 H    1.002 --    18 C    0.974
    50   1 H    1.002 --    23 C    0.974
    51   1 H    1.005 --    24 C    0.973
    52   1 H    1.005 --    29 C    0.973
    53   1 H    0.999 --    30 C    0.971
    54   1 H    0.887 --    32 O    0.865
    55   1 H    0.999 --    33 C    0.970
    56   1 H    1.005 --    34 C    0.973
    57   1 H    1.005 --    36 C    0.973
    58   1 H    0.998 --    37 C    0.976
    59  30 Zn   1.998 --    97 N    0.460    65 N    0.459    77 N    0.456
                            84 N    0.456
    60   6 C    3.926 --    61 C    1.357    96 C    1.357    98 H    0.971
    61   6 C    3.923 --    60 C    1.357    65 N    1.233    62 C    1.172
    62   6 C    3.960 --    63 C    1.657    61 C    1.172    99 H    0.976
    63   6 C    3.963 --    62 C    1.657    64 C    1.173   100 H    0.973
    64   6 C    3.917 --    66 C    1.312    65 N    1.245    63 C    1.173
    65   7 N    3.294 --    64 C    1.245    61 C    1.233    59 Zn   0.459
    66   6 C    3.934 --    74 C    1.325    64 C    1.312    67 C    1.028
    67   6 C    3.989 --    68 C    1.394    73 C    1.384    66 C    1.028
    68   6 C    3.987 --    69 C    1.451    67 C    1.394   101 H    0.973
                            72 C    0.105
    69   6 C    3.988 --    68 C    1.451    70 C    1.373   102 H    0.970
                            73 C    0.103
    70   6 C    3.901 --    69 C    1.373    72 C    1.365    71 O    1.039
    71   8 O    2.042 --    70 C    1.039   103 H    0.865
    72   6 C    3.990 --    73 C    1.466    70 C    1.365   104 H    0.971
                            68 C    0.105
    73   6 C    3.988 --    72 C    1.466    67 C    1.384   105 H    0.973
                            69 C    0.103
    74   6 C    3.912 --    66 C    1.325    77 N    1.224    75 C    1.179
    75   6 C    3.960 --    76 C    1.646    74 C    1.179   106 H    0.973
    76   6 C    3.962 --    75 C    1.646    78 C    1.186   107 H    0.974
    77   7 N    3.297 --    78 C    1.264    74 C    1.224    59 Zn   0.456
    78   6 C    3.902 --    77 N    1.264    79 C    1.252    76 C    1.186
    79   6 C    3.938 --    80 C    1.252    78 C    1.252   132 C    1.193
    80   6 C    3.902 --    84 N    1.264    79 C    1.252    81 C    1.186
    81   6 C    3.962 --    82 C    1.646    80 C    1.186   108 H    0.974
    82   6 C    3.960 --    81 C    1.646    83 C    1.179   109 H    0.973
    83   6 C    3.913 --    85 C    1.325    84 N    1.224    82 C    1.179
    84   7 N    3.297 --    80 C    1.264    83 C    1.224    59 Zn   0.456
    85   6 C    3.934 --    83 C    1.325    93 C    1.312    86 C    1.028
    86   6 C    3.989 --    92 C    1.394    87 C    1.384    85 C    1.028
    87   6 C    3.988 --    88 C    1.466    86 C    1.384   110 H    0.973
                            91 C    0.102
    88   6 C    3.990 --    87 C    1.466    89 C    1.365   111 H    0.971
                            92 C    0.105
    89   6 C    3.901 --    91 C    1.373    88 C    1.365    90 O    1.039
    90   8 O    2.042 --    89 C    1.039   112 H    0.865
    91   6 C    3.988 --    92 C    1.451    89 C    1.373   113 H    0.970
                            87 C    0.102
    92   6 C    3.987 --    91 C    1.451    86 C    1.394   114 H    0.973
                            88 C    0.105
    93   6 C    3.917 --    85 C    1.312    97 N    1.245    94 C    1.173
    94   6 C    3.963 --    95 C    1.657    93 C    1.173   115 H    0.973
    95   6 C    3.960 --    94 C    1.657    96 C    1.172   116 H    0.976
    96   6 C    3.923 --    60 C    1.357    97 N    1.233    95 C    1.172
    97   7 N    3.294 --    93 C    1.245    96 C    1.233    59 Zn   0.460
    98   1 H    1.002 --    60 C    0.971
    99   1 H    0.998 --    62 C    0.976
   100   1 H    1.005 --    63 C    0.973
   101   1 H    1.005 --    68 C    0.973
   102   1 H    0.999 --    69 C    0.970
   103   1 H    0.887 --    71 O    0.865
   104   1 H    0.999 --    72 C    0.971
   105   1 H    1.005 --    73 C    0.973
   106   1 H    1.005 --    75 C    0.973
   107   1 H    1.002 --    76 C    0.974
   108   1 H    1.002 --    81 C    0.974
   109   1 H    1.005 --    82 C    0.973
   110   1 H    1.005 --    87 C    0.973
   111   1 H    0.999 --    88 C    0.971
   112   1 H    0.887 --    90 O    0.865
   113   1 H    0.999 --    91 C    0.970
   114   1 H    1.005 --    92 C    0.973
   115   1 H    1.005 --    94 C    0.973
   116   1 H    0.998 --    95 C    0.976
   117   6 C    3.876 --   118 C    2.437    21 C    1.193   120 C    0.186
   118   6 C    3.933 --   117 C    2.437   119 C    1.345
   119   6 C    3.891 --   120 C    2.334   118 C    1.345   122 C    0.182
   120   6 C    3.924 --   119 C    2.334   121 C    1.370   117 C    0.186
   121   6 C    3.923 --   122 C    2.333   120 C    1.370   124 C    0.186
   122   6 C    3.892 --   121 C    2.333   123 C    1.346   119 C    0.182
   123   6 C    3.930 --   124 C    2.434   122 C    1.346
   124   6 C    3.876 --   123 C    2.434   134 C    1.196   121 C    0.186
   125   6 C    3.876 --   126 C    2.434   153 C    1.196   128 C    0.186
   126   6 C    3.930 --   125 C    2.434   127 C    1.346
   127   6 C    3.892 --   128 C    2.333   126 C    1.346   130 C    0.182
   128   6 C    3.923 --   127 C    2.333   129 C    1.370   125 C    0.186
   129   6 C    3.924 --   130 C    2.334   128 C    1.370   132 C    0.186
   130   6 C    3.891 --   129 C    2.334   131 C    1.345   127 C    0.182
   131   6 C    3.933 --   132 C    2.437   130 C    1.345
   132   6 C    3.876 --   131 C    2.437    79 C    1.193   129 C    0.186
   133  30 Zn   1.994 --   151 N    0.457   158 N    0.456   171 N    0.456
                           139 N    0.456
   134   6 C    3.926 --   135 C    1.250   170 C    1.250   124 C    1.196
   135   6 C    3.902 --   139 N    1.264   134 C    1.250   136 C    1.189
   136   6 C    3.960 --   137 C    1.642   135 C    1.189   172 H    0.974
   137   6 C    3.961 --   136 C    1.642   138 C    1.182   173 H    0.973
   138   6 C    3.910 --   140 C    1.320   139 N    1.224   137 C    1.182
   139   7 N    3.291 --   135 C    1.264   138 C    1.224   133 Zn   0.456
   140   6 C    3.929 --   138 C    1.320   148 C    1.319   141 C    1.027
   141   6 C    3.988 --   147 C    1.394   142 C    1.384   140 C    1.027
   142   6 C    3.988 --   143 C    1.466   141 C    1.384   174 H    0.973
                           146 C    0.102
   143   6 C    3.990 --   142 C    1.466   144 C    1.365   175 H    0.971
                           147 C    0.105
   144   6 C    3.901 --   146 C    1.372   143 C    1.365   145 O    1.040
   145   8 O    2.043 --   144 C    1.040   176 H    0.865
   146   6 C    3.988 --   147 C    1.452   144 C    1.372   177 H    0.970
                           142 C    0.102
   147   6 C    3.988 --   146 C    1.452   141 C    1.394   178 H    0.973
                           143 C    0.105
   148   6 C    3.910 --   140 C    1.319   151 N    1.224   149 C    1.182
   149   6 C    3.961 --   150 C    1.642   148 C    1.182   179 H    0.973
   150   6 C    3.960 --   149 C    1.642   152 C    1.189   180 H    0.974
   151   7 N    3.292 --   152 C    1.263   148 C    1.224   133 Zn   0.457
   152   6 C    3.902 --   151 N    1.263   153 C    1.250   150 C    1.189
   153   6 C    3.926 --   152 C    1.250   154 C    1.250   125 C    1.196
   154   6 C    3.902 --   158 N    1.263   153 C    1.250   155 C    1.189
   155   6 C    3.960 --   156 C    1.642   154 C    1.189   181 H    0.974
   156   6 C    3.961 --   155 C    1.642   157 C    1.182   182 H    0.973
   157   6 C    3.910 --   159 C    1.319   158 N    1.225   156 C    1.182
   158   7 N    3.292 --   154 C    1.263   157 C    1.225   133 Zn   0.456
   159   6 C    3.929 --   167 C    1.319   157 C    1.319   160 C    1.029
   160   6 C    3.988 --   161 C    1.394   166 C    1.383   159 C    1.029
   161   6 C    3.987 --   162 C    1.452   160 C    1.394   183 H    0.973
                           165 C    0.105
   162   6 C    3.988 --   161 C    1.452   163 C    1.372   184 H    0.970
                           166 C    0.102
   163   6 C    3.901 --   162 C    1.372   165 C    1.364   164 O    1.039
   164   8 O    2.043 --   163 C    1.039   185 H    0.865
   165   6 C    3.990 --   166 C    1.466   163 C    1.364   186 H    0.971
                           161 C    0.105
   166   6 C    3.988 --   165 C    1.466   160 C    1.383   187 H    0.973
                           162 C    0.102
   167   6 C    3.910 --   159 C    1.319   171 N    1.224   168 C    1.183
   168   6 C    3.961 --   169 C    1.642   167 C    1.183   188 H    0.973
   169   6 C    3.960 --   168 C    1.642   170 C    1.189   189 H    0.974
   170   6 C    3.902 --   171 N    1.264   134 C    1.250   169 C    1.189
   171   7 N    3.291 --   170 C    1.264   167 C    1.224   133 Zn   0.456
   172   1 H    1.002 --   136 C    0.974
   173   1 H    1.005 --   137 C    0.973
   174   1 H    1.005 --   142 C    0.973
   175   1 H    0.999 --   143 C    0.971
   176   1 H    0.887 --   145 O    0.865
   177   1 H    0.999 --   146 C    0.970
   178   1 H    1.005 --   147 C    0.973
   179   1 H    1.005 --   149 C    0.973
   180   1 H    1.002 --   150 C    0.974
   181   1 H    1.002 --   155 C    0.974
   182   1 H    1.005 --   156 C    0.973
   183   1 H    1.005 --   161 C    0.973
   184   1 H    0.999 --   162 C    0.970
   185   1 H    0.887 --   164 O    0.865
   186   1 H    0.999 --   165 C    0.971
   187   1 H    1.005 --   166 C    0.973
   188   1 H    1.005 --   168 C    0.973
   189   1 H    1.002 --   169 C    0.974
 ---------------------------------------------------------------------------

           -------------------------------------------------
          | TOTAL ENERGY             -335.433379449264 Eh   |
          | GRADIENT NORM               0.000436355071 Eh/α |
          | HOMO-LUMO GAP               0.961044723692 eV   |
           -------------------------------------------------

 * finished run on 2022/07/30 at 11:53:35.191
