   * xtb version 6.5.1 (b24c23e) compiled by 'conda@728c89f4b128' on 2022-07-12
          program call               : xtb Co_Ph2Me_C4_3.xyz --gfn 1 --opt -T 48

   ID    Z sym.   atoms
    1   27 Co     1, 69, 145
    2    6 C      2-6, 8-11, 13-31, 34-41, 70-74, 76-79, 81-99, 102-109,
                  137-144, 146-150, 152-155, 157-175, 178-185
    3    7 N      7, 12, 32, 33, 75, 80, 100, 101, 151, 156, 176, 177
    4    1 H      42-68, 110-136, 186-211

          :  Hamiltonian                  GFN1-xTB          :
 * total energy  :  -336.3578582 Eh     change        0.7485141E-09 Eh
 * total energy  :  -336.5606578 Eh     change       -0.2027995E+00 Eh
 * total energy  :  -336.6244624 Eh     change       -0.6380461E-01 Eh
 * total energy  :  -336.6673692 Eh     change       -0.4290677E-01 Eh
 * total energy  :  -336.6889084 Eh     change       -0.2153928E-01 Eh
 * total energy  :  -336.7102304 Eh     change       -0.2132194E-01 Eh
 * total energy  :  -336.7323432 Eh     change       -0.2211279E-01 Eh
 * total energy  :  -336.7595420 Eh     change       -0.2719885E-01 Eh
 * total energy  :  -336.7815675 Eh     change       -0.2202552E-01 Eh
 * total energy  :  -336.8023540 Eh     change       -0.2078651E-01 Eh
 * total energy  :  -337.1177183 Eh     change       -0.1803824E-04 Eh
 * total energy  :  -337.1177336 Eh     change       -0.1530608E-04 Eh
 * total energy  :  -337.1177500 Eh     change       -0.1637035E-04 Eh
 * total energy  :  -337.1177688 Eh     change       -0.1879751E-04 Eh
 * total energy  :  -337.1177895 Eh     change       -0.2067967E-04 Eh
 * total energy  :  -337.1178063 Eh     change       -0.1685161E-04 Eh
 * total energy  :  -337.1178185 Eh     change       -0.1218372E-04 Eh
 * total energy  :  -337.1178262 Eh     change       -0.7714612E-05 Eh
 * total energy  :  -337.1178281 Eh     change       -0.1918171E-05 Eh
   *** GEOMETRY OPTIMIZATION CONVERGED AFTER 152 ITERATIONS ***

 final structure:
================
211
 xtb: 6.5.1 (b24c23e)
Co          31.11827009366028        0.17028163743600       -0.65683724330975
C           28.11709143613517        0.53471504045488       -2.04791329500130
C           28.63155427860974        1.60135965509123       -1.33751434203178
C           27.91194398810165        2.81367213229816       -1.08984093130449
C           28.63817777920681        3.52065046962774       -0.19071845839246
C           29.84139276659463        2.77855887257194        0.04774450261941
N           29.80721436766169        1.58910712991956       -0.63287690652530
C           30.93590098039259        3.25228206114952        0.76252210233517
C           32.16242454285019        2.60252714811535        0.71425743122029
C           33.40096930824598        3.20537140422987        1.10474181861222
C           34.38885366477657        2.36817299669056        0.70175386996932
N           32.39408239296144        1.38172010702260        0.12871315897142
C           33.74967995970871        1.22734983035633        0.12651555416811
C           34.42912882723218        0.05270724392165       -0.22114788974060
C           33.74125176787722       -1.14883189880666       -0.43573482887744
C           34.36974624188818       -2.43157236933145       -0.43212188255925
C           33.37551445275959       -3.35201273828344       -0.49011177360324
C           32.14538467706853       -2.62655224820064       -0.59530663810166
C           30.92828721059390       -3.21229154756477       -0.91655277355686
C           30.83738800737656       -4.69131863333840       -0.91457029351259
C           30.63691729008249       -5.40121504686437       -2.09566627477320
C           30.56706050751052       -6.79191485869385       -2.08016574766008
C           30.34179617924231       -7.54552968761103       -3.36314591227041
C           30.69707786574220       -7.46726116125802       -0.87246106450328
C           30.90596636813333       -6.77089538015195        0.31643267179987
C           31.05005836804541       -7.52368733457455        1.61135997765479
C           30.97957222029276       -5.38418588126333        0.28842205101114
C           29.85241697036763       -2.44682247571749       -1.35340566632394
C           28.66961297349415       -2.97358898422745       -1.96849532750998
C           27.94779227097757       -1.91343455474575       -2.40527675104706
C           28.64880097600060       -0.73800333947057       -1.98563366401759
N           29.81393940005854       -1.07713344605640       -1.34731753079552
N           32.38688757279568       -1.27486034630470       -0.53547447752059
C           30.85366306408012        4.54380316310233        1.48382421278318
C           30.59773286459478        5.73276978737085        0.80302695308357
C           30.53419144090782        6.93988104466217        1.49144469418740
C           30.28291070254389        8.22351775221203        0.74735023314737
C           30.73017423707795        6.95108045744944        2.86894958885040
C           30.99589729871786        5.77319051613343        3.56129861340031
C           31.19330845579805        5.79576186457826        5.05283062701048
C           31.06001066492328        4.57270816040631        2.86254812995735
H           27.17616454974996        0.67196836138697       -2.56820173686612
H           26.95480758372426        3.05657396573965       -1.52341455501348
H           28.39670166701358        4.46830397209275        0.26246996163762
H           33.49247500783649        4.16525806229172        1.58661329313485
H           35.45546626305284        2.48481647194532        0.80758585578034
H           35.43358649704982       -2.59247329382609       -0.36235534476290
H           33.45847810361943       -4.42665154237677       -0.50459139356420
H           30.56081203580966       -4.86722592299832       -3.03642704231262
H           30.55874859726552       -8.60606400464475       -3.23666901911110
H           29.30126415167433       -7.44241550253699       -3.67854110494750
H           30.97488935204355       -7.14870665644655       -4.15777112742628
H           30.64251376984330       -8.55091688384266       -0.85367546851814
H           31.26866677510432       -6.84560330231665        2.43595272613287
H           30.12815223518532       -8.06212198341171        1.83903623211479
H           31.85645489175905       -8.25525259696313        1.53701365378056
H           31.13729946310464       -4.82768113448221        1.20576540339190
H           28.43691854045814       -4.02173999636247       -2.06343376236513
H           27.00356254048367       -1.90960910899853       -2.92637842244192
H           30.47105458667934        5.71682000946775       -0.27374064554319
H           29.78588738266147        8.95274214620648        1.38736636260977
H           29.66556793051298        8.04720104085321       -0.13372285041522
H           31.23175948419077        8.65220308636888        0.41677489747225
H           30.68092537242793        7.89071284882274        3.40956428090562
H           30.23043852414852        5.68293891117351        5.55620455398338
H           31.63359081731417        6.74074726438452        5.37171894463939
H           31.84059279462368        4.97856556906912        5.37152608561174
H           31.26016693208222        3.64639999974544        3.38979436039437
Co          57.75694568696669        0.39926296406802       -0.33623715966104
C           60.90087106277957        1.41556516780702       -0.88121849226993
C           60.37970702782313        0.45178285587679       -1.71997456583894
C           61.13431451410020       -0.20050321524163       -2.74624574300172
C           60.33389410790357       -1.16012996148431       -3.26781412072073
C           59.06401562074680       -1.04397149626718       -2.61172650420154
N           59.12249778626018       -0.08637701318723       -1.62937604395291
C           57.91008663765699       -1.70193282218370       -3.01372902401154
C           56.67006125972198       -1.38248180021407       -2.47486088027727
C           55.42363910361680       -1.78943813245657       -3.04992694456343
C           54.44435273182980       -1.19665829042238       -2.32470041948007
N           56.45223345330592       -0.56423518212022       -1.39405416026381
C           55.09211832578058       -0.46899019956872       -1.27951871718706
C           54.40890293698772        0.10118879660095       -0.20466246210658
C           55.07958661443096        0.57280742076860        0.92565957436467
C           54.42589592773749        0.89633175253374        2.15408704596333
C           55.39869091457621        1.22842249362173        3.03686455385485
C           56.64191008976117        1.15727291123212        2.32922943781134
C           57.83604575905191        1.65812113048475        2.82720683515580
C           57.87800353474098        2.11994594059902        4.23600214358437
C           58.03708472205973        3.46970888203900        4.53879398743526
C           58.06871129886534        3.89745297364596        5.86363690472942
C           58.25098822402553        5.35858552181746        6.17492305509524
C           57.94143952213268        2.96278728923744        6.88416942050391
C           57.77446432593723        1.60952402095911        6.59630433053729
C           57.63363967115446        0.61666215060996        7.71836374078489
C           57.73988998905408        1.19469755703640        5.27102962300239
C           58.94615558928525        1.83213600259839        2.01132357714962
C           60.12771871536363        2.55041396973958        2.38948659853812
C           60.93736211589172        2.57522283853896        1.30457118165089
C           60.28209527441229        1.81244405508676        0.28549944831789
N           59.05619091804707        1.37792045648013        0.72209209335401
N           56.43296691514109        0.72217081212877        1.04167420380878
C           57.96150269864857       -2.68667102837419       -4.11966083475630
C           58.40149832878807       -2.31663064142225       -5.38969102616671
C           58.43294149047119       -3.24546689743240       -6.42447664175638
C           58.88753642541050       -2.83429122730668       -7.79898341556126
C           58.01568085756445       -4.55082411940403       -6.18301297170249
C           57.56484094463035       -4.93336530929758       -4.92306976453592
C           57.12611730694277       -6.35041158850147       -4.66974656493000
C           57.53908089090942       -3.99664124224164       -3.89574301519983
H           61.89497467365202        1.79392086018966       -1.08900808386154
H           62.15649049654362        0.03538389555906       -2.99665119868815
H           60.56740254173257       -1.87663024736344       -4.03844543176725
H           55.32382908863892       -2.42267169161975       -3.91645551695866
H           53.37601723830372       -1.25934546977708       -2.45569649295014
H           53.36004870027487        0.85123132967865        2.31037131935878
H           55.29379616112402        1.53401174832263        4.06521955964796
H           58.11512468796123        4.19375321480990        3.73519699493856
H           58.03459002772926        5.56519941453468        7.22291698367795
H           59.28106154465721        5.65825754488720        5.97023731061579
H           57.59389913596755        5.96799503259908        5.55302129140598
H           57.96677996022142        3.28914979641109        7.91884372078066
H           57.47660858540445       -0.39035264436078        7.33259988149329
H           58.53297314250908        0.61613832898690        8.33705158839703
H           56.78818124750814        0.88242483945620        8.35538765054068
H           57.61632909516614        0.14425479077926        5.03144357834597
H           60.30137427039735        2.98389145929834        3.36097522676739
H           61.91112831668561        3.02665450257273        1.19897019761154
H           58.69897611531158       -1.29044020713768       -5.57512899153912
H           59.35280964996286       -3.67113212511154       -8.32037202792354
H           59.60122002098353       -2.01215735578357       -7.74246141398784
H           58.03079166515083       -2.50077814169193       -8.38903626945091
H           58.03700153507761       -5.27793363320129       -6.98833302557664
H           57.98216456552715       -6.95521791189597       -4.36202241445317
H           56.70506291751480       -6.79347377544105       -5.57255328378670
H           56.38007923218562       -6.38961289371691       -3.87578597035635
H           57.19831227515858       -4.28385579563369       -2.90701100429587
C           37.05221225638078        0.04970764585807       -0.21935148944608
C           35.82868672047866        0.04653176963394       -0.21172842852162
C           38.39881911050082        0.05168788523592       -0.21438370726034
C           39.62221329729874        0.05765807851866       -0.20445463886683
C           50.42861106821796        0.09645580342547       -0.20747226707873
C           49.20794394053877        0.09077430489582       -0.19273733087002
C           51.78081849691528        0.10283906724171       -0.21026583536822
C           53.00153903573679        0.09652582588995       -0.20781184515298
Co          44.41206270457073        0.08354550123304       -0.14179957522557
C           41.02227422713427        0.06516171967514       -0.18532773782493
C           41.69498159640057        1.28341269930978       -0.04111584494974
C           41.03691878889782        2.53825897439391        0.13977353797044
C           41.99061142298073        3.49578380186853        0.03186743230805
C           43.22543481954200        2.82038194241598       -0.23029120104596
N           43.03921043157419        1.45669823444233       -0.20297256887262
C           44.40139975318778        3.45225142571108       -0.60552436577974
C           45.57811480276297        2.74435132899305       -0.81720158622425
C           46.79973366316361        3.32871921571336       -1.28106243900277
C           47.75684200984076        2.37543278101215       -1.16722772743009
N           45.77180589790174        1.42375878566516       -0.49201176330068
C           47.11529772943102        1.21304621813004       -0.64008244353659
C           47.80137740287775        0.09021790507273       -0.17463473765840
C           47.12951418440131       -1.02942613278654        0.31948483005438
C           47.78457632436993       -2.17570447918005        0.86445404789454
C           46.83054119071080       -3.12395890794787        1.03404642993964
C           45.59872037528073       -2.55585078327923        0.57694400277385
C           44.42486369883483       -3.27486755175801        0.39077116188608
C           44.43177726283023       -4.73723601798510        0.62393074859196
C           43.57853767983804       -5.30312130596419        1.57024852539075
C           43.58115721222376       -6.67616424234748        1.79169854933636
C           42.67912230618163       -7.27983637026772        2.83405947928950
C           44.44009325912123       -7.48429081472099        1.05311296284379
C           45.29393029012385       -6.93492718648083        0.10062663656188
C           46.22328632765443       -7.82152049974711       -0.68349186746370
C           45.28932539076428       -5.56023483417509       -0.10583341843684
C           43.24967015040082       -2.66279070563385       -0.01947458031281
C           42.02878740662057       -3.35703538462544       -0.29680312121535
C           41.07136662393592       -2.41205772933463       -0.46492528226093
C           41.71223949180232       -1.14646425866984       -0.29700933869617
N           43.05296422414200       -1.30269159364743       -0.09096275671952
N           45.78385703735897       -1.24502241370285        0.20763619280518
C           44.40795095666969        4.92115838543783       -0.79340107286610
C           45.26263233744065        5.71969152881245       -0.03575521879820
C           45.27584418328856        7.10081816781551       -0.20570032836212
C           46.20933543998616        7.95017210630847        0.61393075971859
C           44.43331744191502        7.67875944382368       -1.14899580824006
C           43.57583294322133        6.89386421688175       -1.91634723874468
C           42.68723886904285        7.53460224881846       -2.94800700572973
C           43.56448391618660        5.51654021129554       -1.73175289822010
H           39.97999237783114        2.65541322459077        0.31774260309204
H           41.87825113069560        4.56465329073378        0.11391961309520
H           46.90111596679141        4.33907990179487       -1.64253232920135
H           48.80698387547989        2.44155356426726       -1.40211941321574
H           48.84002668146275       -2.23428166971490        1.07662025496895
H           46.94097563221548       -4.12174193979833        1.42650033626765
H           42.92102809906568       -4.66160808976662        2.14669112060521
H           42.36058997642800       -8.27993749834460        2.53897387212599
H           43.21249630209838       -7.36054702695616        3.78401518985804
H           41.79663640751870       -6.65960398521491        2.99154879736532
H           44.44198417929379       -8.55679626761835        1.21871247266718
H           46.55738978149640       -7.32664204730675       -1.59532909760021
H           45.73088703271284       -8.75740903822761       -0.94970572603636
H           47.10318626757913       -8.06176853736496       -0.08246379093576
H           45.93958227104057       -5.12138187517578       -0.85461175370631
H           41.92804001369723       -4.42887270633909       -0.35021086077735
H           40.02157579660194       -2.54419007842404       -0.67215819129372
H           45.90700948805490        5.25877906971902        0.70487168231749
H           45.90203380165852        8.99573904562600        0.59775503906253
H           47.22252565117299        7.88407915987684        0.21126628065997
H           46.23516138553720        7.60583335453038        1.64840087050672
H           44.44146178636714        8.75488106212087       -1.28880516537581
H           42.26074525724552        8.46297712601172       -2.56643088908420
H           41.87631389852867        6.86529814078078       -3.23491367874731
H           43.26784950813101        7.77258425957980       -3.84210361296245
H           42.91055623512750        4.89317156661691       -2.33164556734545

          :  Hamiltonian                  GFN1-xTB          :
         :: total energy            -337.117828124650 Eh    ::
         :: gradient norm              0.000730531240 Eh/a0 ::
         :: HOMO-LUMO gap              0.008098210415 eV    ::
         :: SCC energy              -342.606509763558 Eh    ::
         :: repulsion energy           5.670343381797 Eh    ::

    * Orbital Energies and Occupations

         #    Occupation            Energy/Eh            Energy/eV
      -------------------------------------------------------------
         1        2.0000           -0.7705543             -20.9678
       ...           ...                  ...                  ...
       304        2.0000           -0.3920223             -10.6675
       305        2.0000           -0.3903474             -10.6219
       306        2.0000           -0.3886118             -10.5747
       307        1.9999           -0.3882536             -10.5649
       308        1.9999           -0.3880571             -10.5596
       309        1.9999           -0.3875334             -10.5453
       310        1.9999           -0.3873334             -10.5399
       311        1.9998           -0.3871838             -10.5358
       312        1.9998           -0.3869792             -10.5302
       313        1.9855           -0.3829423             -10.4204
       314        1.8965           -0.3810176             -10.3680
       315        1.1707           -0.3784443             -10.2980
       316        1.0444           -0.3781747             -10.2907 (HOMO)
       317        0.9037           -0.3778771             -10.2826 (LUMO)
       318                         -0.3388197              -9.2198
       319                         -0.3278297              -8.9207
       320                         -0.3268160              -8.8931
       321                         -0.3252122              -8.8495
       322                         -0.3245239              -8.8307
       323                         -0.3227796              -8.7833
       324                         -0.3007555              -8.1840
       325                         -0.2915549              -7.9336
       326                         -0.2912211              -7.9245
       327                         -0.2878779              -7.8336
       ...                                ...                  ...
       699                          1.5197967              41.3558
      -------------------------------------------------------------
                  HL-Gap            0.0002976 Eh            0.0081 eV

Wiberg/Mayer (AO) data.
largest (>0.10) Wiberg bond orders for each atom

     #   Z sym  total        # sym  WBO       # sym  WBO       # sym  WBO
 ---------------------------------------------------------------------------
     1  27 Co   3.093 --     7 N    0.637    32 N    0.636    33 N    0.634
                            12 N    0.633
     2   6 C    3.924 --    31 C    1.361     3 C    1.359    42 H    0.971
     3   6 C    3.925 --     2 C    1.359     7 N    1.206     4 C    1.175
     4   6 C    3.959 --     5 C    1.646     3 C    1.175    43 H    0.975
     5   6 C    3.963 --     4 C    1.646     6 C    1.177    44 H    0.972
     6   6 C    3.922 --     8 C    1.316     7 N    1.216     5 C    1.177
     7   7 N    3.346 --     6 C    1.216     3 C    1.206     1 Co   0.637
     8   6 C    3.929 --     9 C    1.327     6 C    1.316    34 C    1.027
     9   6 C    3.917 --     8 C    1.327    12 N    1.197    10 C    1.183
    10   6 C    3.959 --    11 C    1.634     9 C    1.183    45 H    0.974
    11   6 C    3.962 --    10 C    1.634    13 C    1.192    46 H    0.974
    12   7 N    3.349 --    13 C    1.236     9 C    1.197     1 Co   0.633
    13   6 C    3.905 --    14 C    1.249    12 N    1.236    11 C    1.192
    14   6 C    3.925 --    13 C    1.249    15 C    1.247   138 C    1.205
    15   6 C    3.905 --    14 C    1.247    33 N    1.239    16 C    1.192
    16   6 C    3.962 --    17 C    1.634    15 C    1.192    47 H    0.974
    17   6 C    3.959 --    16 C    1.634    18 C    1.182    48 H    0.974
    18   6 C    3.917 --    19 C    1.330    33 N    1.195    17 C    1.182
    19   6 C    3.929 --    18 C    1.330    28 C    1.313    20 C    1.026
    20   6 C    3.988 --    21 C    1.405    27 C    1.388    19 C    1.026
                            24 C    0.103
    21   6 C    3.986 --    22 C    1.408    20 C    1.405    49 H    0.972
                            25 C    0.104
    22   6 C    3.988 --    24 C    1.425    21 C    1.408    23 C    1.020
                            27 C    0.103
    23   6 C    3.995 --    22 C    1.020    50 H    0.985    52 H    0.979
                            51 H    0.972
    24   6 C    3.988 --    22 C    1.425    25 C    1.406    53 H    0.972
                            20 C    0.103
    25   6 C    3.988 --    27 C    1.426    24 C    1.406    26 C    1.020
                            21 C    0.104
    26   6 C    3.995 --    25 C    1.020    54 H    0.986    56 H    0.976
                            55 H    0.974
    27   6 C    3.985 --    25 C    1.426    20 C    1.388    57 H    0.972
                            22 C    0.103
    28   6 C    3.922 --    19 C    1.313    32 N    1.218    29 C    1.178
    29   6 C    3.963 --    30 C    1.646    28 C    1.178    58 H    0.972
    30   6 C    3.959 --    29 C    1.646    31 C    1.175    59 H    0.975
    31   6 C    3.925 --     2 C    1.361    32 N    1.204    30 C    1.175
    32   7 N    3.346 --    28 C    1.218    31 C    1.204     1 Co   0.636
    33   7 N    3.348 --    15 C    1.239    18 C    1.195     1 Co   0.634
    34   6 C    3.988 --    35 C    1.397    41 C    1.395     8 C    1.027
                            38 C    0.103
    35   6 C    3.986 --    36 C    1.415    34 C    1.397    60 H    0.971
                            39 C    0.103
    36   6 C    3.988 --    38 C    1.417    35 C    1.415    37 C    1.020
                            41 C    0.104
    37   6 C    3.995 --    36 C    1.020    61 H    0.983    62 H    0.983
                            63 H    0.971
    38   6 C    3.988 --    36 C    1.417    39 C    1.414    64 H    0.972
                            34 C    0.103
    39   6 C    3.988 --    41 C    1.418    38 C    1.414    40 C    1.020
                            35 C    0.103
    40   6 C    3.995 --    39 C    1.020    67 H    0.983    66 H    0.982
                            65 H    0.971
    41   6 C    3.985 --    39 C    1.418    34 C    1.395    68 H    0.972
                            36 C    0.104
    42   1 H    1.000 --     2 C    0.971
    43   1 H    0.998 --     4 C    0.975
    44   1 H    1.005 --     5 C    0.972
    45   1 H    1.004 --    10 C    0.974
    46   1 H    1.001 --    11 C    0.974
    47   1 H    1.001 --    16 C    0.974
    48   1 H    1.004 --    17 C    0.974
    49   1 H    1.003 --    21 C    0.972
    50   1 H    1.004 --    23 C    0.985
    51   1 H    1.006 --    23 C    0.972
    52   1 H    1.005 --    23 C    0.979
    53   1 H    1.000 --    24 C    0.972
    54   1 H    1.003 --    26 C    0.986
    55   1 H    1.005 --    26 C    0.974
    56   1 H    1.005 --    26 C    0.976
    57   1 H    1.002 --    27 C    0.972
    58   1 H    1.005 --    29 C    0.972
    59   1 H    0.998 --    30 C    0.975
    60   1 H    1.003 --    35 C    0.971
    61   1 H    1.004 --    37 C    0.983
    62   1 H    1.004 --    37 C    0.983
    63   1 H    1.006 --    37 C    0.971
    64   1 H    1.000 --    38 C    0.972
    65   1 H    1.006 --    40 C    0.971
    66   1 H    1.004 --    40 C    0.982
    67   1 H    1.004 --    40 C    0.983
    68   1 H    1.002 --    41 C    0.972
    69  27 Co   3.055 --    75 N    0.640   100 N    0.639   101 N    0.639
                            80 N    0.637
    70   6 C    3.933 --    99 C    1.366    71 C    1.359   110 H    0.970
    71   6 C    3.924 --    70 C    1.359    75 N    1.207    72 C    1.175
    72   6 C    3.959 --    73 C    1.648    71 C    1.175   111 H    0.975
    73   6 C    3.963 --    72 C    1.648    74 C    1.175   112 H    0.972
    74   6 C    3.922 --    76 C    1.327    75 N    1.207    73 C    1.175
    75   7 N    3.350 --    71 C    1.207    74 C    1.207    69 Co   0.640
    76   6 C    3.938 --    74 C    1.327    77 C    1.321   102 C    1.028
    77   6 C    3.917 --    76 C    1.321    80 N    1.204    78 C    1.183
    78   6 C    3.961 --    79 C    1.637    77 C    1.183   113 H    0.973
    79   6 C    3.961 --    78 C    1.637    81 C    1.189   114 H    0.974
    80   7 N    3.356 --    81 C    1.221    77 C    1.204    69 Co   0.637
    81   6 C    3.908 --    82 C    1.271    80 N    1.221    79 C    1.189
    82   6 C    3.940 --    81 C    1.271    83 C    1.265   144 C    1.171
    83   6 C    3.908 --    82 C    1.265   101 N    1.228    84 C    1.190
    84   6 C    3.962 --    85 C    1.638    83 C    1.190   115 H    0.974
    85   6 C    3.960 --    84 C    1.638    86 C    1.180   116 H    0.973
    86   6 C    3.917 --    87 C    1.331   101 N    1.196    85 C    1.180
    87   6 C    3.937 --    86 C    1.331    96 C    1.321    88 C    1.022
    88   6 C    3.988 --    89 C    1.406    95 C    1.390    87 C    1.022
                            92 C    0.103
    89   6 C    3.987 --    90 C    1.408    88 C    1.406   117 H    0.972
                            93 C    0.104
    90   6 C    3.988 --    92 C    1.425    89 C    1.408    91 C    1.020
                            95 C    0.103
    91   6 C    3.996 --    90 C    1.020   118 H    0.985   120 H    0.979
                           119 H    0.973
    92   6 C    3.989 --    90 C    1.425    93 C    1.406   121 H    0.972
                            88 C    0.103
    93   6 C    3.988 --    95 C    1.426    92 C    1.406    94 C    1.020
                            89 C    0.104
    94   6 C    3.996 --    93 C    1.020   122 H    0.986   124 H    0.976
                           123 H    0.975
    95   6 C    3.987 --    93 C    1.426    88 C    1.390   125 H    0.972
                            90 C    0.103
    96   6 C    3.921 --    87 C    1.321   100 N    1.213    97 C    1.177
    97   6 C    3.963 --    98 C    1.649    96 C    1.177   126 H    0.972
    98   6 C    3.960 --    97 C    1.649    99 C    1.173   127 H    0.975
    99   6 C    3.924 --    70 C    1.366   100 N    1.202    98 C    1.173
   100   7 N    3.352 --    96 C    1.213    99 C    1.202    69 Co   0.639
   101   7 N    3.355 --    83 C    1.228    86 C    1.196    69 Co   0.639
   102   6 C    3.988 --   103 C    1.396   109 C    1.395    76 C    1.028
                           106 C    0.102
   103   6 C    3.986 --   104 C    1.416   102 C    1.396   128 H    0.971
                           107 C    0.103
   104   6 C    3.988 --   103 C    1.416   106 C    1.416   105 C    1.020
                           109 C    0.103
   105   6 C    3.996 --   104 C    1.020   130 H    0.983   129 H    0.982
                           131 H    0.971
   106   6 C    3.988 --   104 C    1.416   107 C    1.414   132 H    0.972
                           102 C    0.102
   107   6 C    3.988 --   109 C    1.418   106 C    1.414   108 C    1.020
                           103 C    0.103
   108   6 C    3.996 --   107 C    1.020   135 H    0.983   134 H    0.983
                           133 H    0.971
   109   6 C    3.985 --   107 C    1.418   102 C    1.395   136 H    0.972
                           104 C    0.103
   110   1 H    1.000 --    70 C    0.970
   111   1 H    0.998 --    72 C    0.975
   112   1 H    1.005 --    73 C    0.972
   113   1 H    1.004 --    78 C    0.973
   114   1 H    1.001 --    79 C    0.974
   115   1 H    1.001 --    84 C    0.974
   116   1 H    1.004 --    85 C    0.973
   117   1 H    1.002 --    89 C    0.972
   118   1 H    1.004 --    91 C    0.985
   119   1 H    1.006 --    91 C    0.973
   120   1 H    1.005 --    91 C    0.979
   121   1 H    1.000 --    92 C    0.972
   122   1 H    1.003 --    94 C    0.986
   123   1 H    1.005 --    94 C    0.975
   124   1 H    1.005 --    94 C    0.976
   125   1 H    1.002 --    95 C    0.972
   126   1 H    1.005 --    97 C    0.972
   127   1 H    0.998 --    98 C    0.975
   128   1 H    1.004 --   103 C    0.971
   129   1 H    1.004 --   105 C    0.982
   130   1 H    1.004 --   105 C    0.983
   131   1 H    1.006 --   105 C    0.971
   132   1 H    1.000 --   106 C    0.972
   133   1 H    1.006 --   108 C    0.971
   134   1 H    1.004 --   108 C    0.983
   135   1 H    1.004 --   108 C    0.983
   136   1 H    1.002 --   109 C    0.972
   137   6 C    3.924 --   138 C    2.452   139 C    1.323
   138   6 C    3.923 --   137 C    2.452    14 C    1.205   140 C    0.197
   139   6 C    3.926 --   140 C    2.454   137 C    1.323
   140   6 C    3.915 --   139 C    2.454   146 C    1.201   138 C    0.197
   141   6 C    3.928 --   142 C    2.489   143 C    1.293
   142   6 C    3.916 --   141 C    2.489   158 C    1.173   144 C    0.196
   143   6 C    3.932 --   144 C    2.490   141 C    1.293
   144   6 C    3.915 --   143 C    2.490    82 C    1.171   142 C    0.196
   145  27 Co   3.013 --   156 N    0.630   177 N    0.629   176 N    0.628
                           151 N    0.628
   146   6 C    3.919 --   175 C    1.253   147 C    1.251   140 C    1.201
   147   6 C    3.905 --   146 C    1.251   151 N    1.237   148 C    1.192
   148   6 C    3.959 --   149 C    1.634   147 C    1.192   186 H    0.974
   149   6 C    3.959 --   148 C    1.634   150 C    1.183   187 H    0.973
   150   6 C    3.916 --   152 C    1.331   151 N    1.191   149 C    1.183
   151   7 N    3.338 --   147 C    1.237   150 C    1.191   145 Co   0.628
   152   6 C    3.925 --   150 C    1.331   153 C    1.316   178 C    1.029
   153   6 C    3.914 --   152 C    1.316   156 N    1.203   154 C    1.185
   154   6 C    3.961 --   155 C    1.634   153 C    1.185   188 H    0.973
   155   6 C    3.960 --   154 C    1.634   157 C    1.191   189 H    0.974
   156   7 N    3.340 --   157 C    1.223   153 C    1.203   145 Co   0.630
   157   6 C    3.909 --   158 C    1.268   156 N    1.223   155 C    1.191
   158   6 C    3.921 --   157 C    1.268   159 C    1.265   142 C    1.173
   159   6 C    3.909 --   158 C    1.265   177 N    1.225   160 C    1.192
   160   6 C    3.960 --   161 C    1.633   159 C    1.192   190 H    0.974
   161   6 C    3.961 --   160 C    1.633   162 C    1.185   191 H    0.973
   162   6 C    3.914 --   163 C    1.318   177 N    1.201   161 C    1.185
   163   6 C    3.925 --   172 C    1.329   162 C    1.318   164 C    1.030
   164   6 C    3.988 --   165 C    1.396   171 C    1.393   163 C    1.030
                           168 C    0.102
   165   6 C    3.986 --   166 C    1.417   164 C    1.396   192 H    0.972
                           169 C    0.103
   166   6 C    3.988 --   165 C    1.417   168 C    1.416   167 C    1.020
                           171 C    0.103
   167   6 C    3.995 --   166 C    1.020   195 H    0.983   193 H    0.982
                           194 H    0.971
   168   6 C    3.988 --   166 C    1.416   169 C    1.413   196 H    0.972
                           164 C    0.102
   169   6 C    3.988 --   171 C    1.420   168 C    1.413   170 C    1.020
                           165 C    0.103
   170   6 C    3.995 --   169 C    1.020   197 H    0.984   198 H    0.981
                           199 H    0.971
   171   6 C    3.986 --   169 C    1.420   164 C    1.393   200 H    0.971
                           166 C    0.103
   172   6 C    3.916 --   163 C    1.329   176 N    1.192   173 C    1.184
   173   6 C    3.959 --   174 C    1.634   172 C    1.184   201 H    0.973
   174   6 C    3.960 --   173 C    1.634   175 C    1.192   202 H    0.974
   175   6 C    3.905 --   146 C    1.253   176 N    1.235   174 C    1.192
   176   7 N    3.338 --   175 C    1.235   172 C    1.192   145 Co   0.628
   177   7 N    3.340 --   159 C    1.225   162 C    1.201   145 Co   0.629
   178   6 C    3.988 --   179 C    1.399   185 C    1.390   152 C    1.029
                           182 C    0.102
   179   6 C    3.984 --   180 C    1.413   178 C    1.399   203 H    0.972
                           183 C    0.104
   180   6 C    3.988 --   182 C    1.421   179 C    1.413   181 C    1.020
                           185 C    0.103
   181   6 C    3.995 --   180 C    1.020   204 H    0.985   206 H    0.980
                           205 H    0.972
   182   6 C    3.988 --   180 C    1.421   183 C    1.409   207 H    0.972
                           178 C    0.102
   183   6 C    3.988 --   185 C    1.423   182 C    1.409   184 C    1.020
                           179 C    0.104
   184   6 C    3.995 --   183 C    1.020   209 H    0.985   208 H    0.980
                           210 H    0.972
   185   6 C    3.986 --   183 C    1.423   178 C    1.390   211 H    0.971
                           180 C    0.103
   186   1 H    1.001 --   148 C    0.974
   187   1 H    1.004 --   149 C    0.973
   188   1 H    1.004 --   154 C    0.973
   189   1 H    1.001 --   155 C    0.974
   190   1 H    1.001 --   160 C    0.974
   191   1 H    1.004 --   161 C    0.973
   192   1 H    1.003 --   165 C    0.972
   193   1 H    1.004 --   167 C    0.982
   194   1 H    1.006 --   167 C    0.971
   195   1 H    1.004 --   167 C    0.983
   196   1 H    1.000 --   168 C    0.972
   197   1 H    1.004 --   170 C    0.984
   198   1 H    1.005 --   170 C    0.981
   199   1 H    1.006 --   170 C    0.971
   200   1 H    1.003 --   171 C    0.971
   201   1 H    1.004 --   173 C    0.973
   202   1 H    1.001 --   174 C    0.974
   203   1 H    1.003 --   179 C    0.972
   204   1 H    1.004 --   181 C    0.985
   205   1 H    1.006 --   181 C    0.972
   206   1 H    1.004 --   181 C    0.980
   207   1 H    1.000 --   182 C    0.972
   208   1 H    1.005 --   184 C    0.980
   209   1 H    1.004 --   184 C    0.985
   210   1 H    1.006 --   184 C    0.972
   211   1 H    1.003 --   185 C    0.971
 ---------------------------------------------------------------------------

           -------------------------------------------------
          | TOTAL ENERGY             -337.117828124650 Eh   |
          | GRADIENT NORM               0.000730531240 Eh/α |
          | HOMO-LUMO GAP               0.008098210415 eV   |
           -------------------------------------------------

 * finished run on 2022/07/30 at 00:17:25.821
