   * xtb version 6.5.1 (b24c23e) compiled by 'conda@728c89f4b128' on 2022-07-12
          program call               : xtb Py_C6_2.xyz --gfn 1 --opt -T 48

   ID    Z sym.   atoms
    1    6 C      1-5, 7-10, 12-16, 18-23, 25-28, 30-35, 56-60, 62-65, 67-71,
                  73-78, 80-83, 85-90, 111-116
    2    7 N      6, 11, 17, 24, 29, 36, 61, 66, 72, 79, 84, 91
    3    1 H      37-55, 92-110
########################################################################
[WARNING] Please study the warnings concerning your input carefully
-1- prog_main_parseArguments: Unknown option '-T' provided
########################################################################

          :  Hamiltonian                  GFN1-xTB          :
 * total energy  :  -197.5128854 Eh     change       -0.5027800E-09 Eh
 * total energy  :  -197.8648797 Eh     change       -0.3519942E+00 Eh
 * total energy  :  -197.9511858 Eh     change       -0.8630614E-01 Eh
 * total energy  :  -197.9840471 Eh     change       -0.3286127E-01 Eh
 * total energy  :  -197.9950979 Eh     change       -0.1105079E-01 Eh
 * total energy  :  -198.0016936 Eh     change       -0.6595756E-02 Eh
 * total energy  :  -198.0045174 Eh     change       -0.2823757E-02 Eh
 * total energy  :  -198.0062826 Eh     change       -0.1765211E-02 Eh
 * total energy  :  -198.0079192 Eh     change       -0.1636586E-02 Eh
 * total energy  :  -198.0094753 Eh     change       -0.1556072E-02 Eh
 * total energy  :  -198.0171312 Eh     change       -0.3326625E-04 Eh
 * total energy  :  -198.0171495 Eh     change       -0.1827645E-04 Eh
 * total energy  :  -198.0171686 Eh     change       -0.1908057E-04 Eh
 * total energy  :  -198.0171765 Eh     change       -0.7935862E-05 Eh
 * total energy  :  -198.0171863 Eh     change       -0.9773121E-05 Eh
 * total energy  :  -198.0171933 Eh     change       -0.7027677E-05 Eh
 * total energy  :  -198.0171932 Eh     change        0.8366965E-07 Eh
 * total energy  :  -198.0171991 Eh     change       -0.5822127E-05 Eh
 * total energy  :  -198.0172000 Eh     change       -0.9279668E-06 Eh
   *** GEOMETRY OPTIMIZATION CONVERGED AFTER 44 ITERATIONS ***

 final structure:
================
116
 xtb: 6.5.1 (b24c23e)
C            7.81739550973753        0.08750945202075        0.04401852437987
C            8.42272712035188        1.31720048799404        0.26838416856144
C            7.76696139627572        2.56178954033198        0.48443189501682
C            8.72615841083355        3.51541739097039        0.67805547044570
C            9.99927120538973        2.88214305255663        0.59565950470008
N            9.76535439066787        1.56149444814135        0.33704309384404
C           11.26114280985933        3.47302174427323        0.72674703030070
C           11.28791893992108        4.92209337593783        1.03555757174075
C           11.89518615612462        5.83540472789650        0.17406954838331
C           11.89190857553134        7.18142882700697        0.50387666861963
N           11.33547337795079        7.65398529886283        1.61475077722890
C           10.75652694996348        6.79031140144985        2.44267043452390
C           10.70505104920435        5.42714542868223        2.19760483633070
C           12.47931113680079        2.80280031041194        0.59057067510520
C           13.77515724664255        3.42659129189221        0.79035669371372
C           14.69860031018818        2.46837039541887        0.56919753968780
N           12.63735529576719        1.48744323679828        0.27657249928647
C           13.96574448545311        1.25947713658474        0.24592233542323
C           14.60648712305379        0.04030185699322       -0.05553525479897
C           13.97415085072865       -1.18703709909392       -0.33137167007110
C           14.62119484859386       -2.40986963119099       -0.65174540490723
C           13.65757414679085       -3.36430773004048       -0.82553902082548
C           12.39138961658208       -2.75338906769930       -0.60878406184174
N           12.63433944588364       -1.43585006703354       -0.32330477933471
C           11.13131283646983       -3.35503445189810       -0.69264919763786
C           11.10417671661577       -4.80693569611234       -0.98621727541551
C           11.70352485524660       -5.73149330443617       -0.13124638788843
C           11.64854257544757       -7.07976427601857       -0.44770399034498
N           11.05209042727596       -7.54365502960163       -1.54108752801410
C           10.48078535451265       -6.66903268122243       -2.36302776075485
C           10.47827028660688       -5.30305594601235       -2.12954768475764
C            9.91259607327171       -2.68985728711099       -0.52235741727207
C            8.61158091969389       -3.33935725780320       -0.56761412000934
C            7.69463539350521       -2.37192609741224       -0.36613821297230
C            8.43450889404199       -1.13518481093542       -0.18503365990978
N            9.76715274676659       -1.36636826321816       -0.27645070151094
H            6.73209418810197        0.09137788901476        0.05438937446104
H            6.69719414956392        2.69728244390953        0.48391271527165
H            8.57160003926688        4.56762608659034        0.85371654137362
H           10.49278139586098        0.86526121050501        0.21319412189190
H           12.34980773519622        5.49759614611691       -0.74959324776117
H           12.35600420298585        7.91134336729091       -0.15302392849158
H           10.31377806922959        7.20583553942309        3.34324174428352
H           10.23445828227956        4.75959402429117        2.90973372406719
H           13.93521286702061        4.45360702546069        1.07570339557798
H           15.77282792353801        2.54436091019216        0.62213460844589
H           15.68858168861165       -2.53227450094446       -0.74061743826740
H           13.80672167587092       -4.39831927612790       -1.09032766959554
H           11.91066465588043       -0.74911779202019       -0.13801674030053
H           12.18987541839561       -5.40140460959138        0.77905425321118
H           12.10322105147121       -7.81856902504953        0.20583065884259
H           10.00400222306269       -7.07798849389955       -3.24904693812353
H           10.01095871473195       -4.62625119232171       -2.83483029247996
H            8.44781132884096       -4.39386688768488       -0.72075503336269
H            6.61990290152624       -2.45703602590545       -0.32909891427667
C           30.56831743857358       -0.09861133003787        0.00043287575365
C           29.96329549412287       -1.29397327371018       -0.36565199826102
C           30.61951152294209       -2.49798264279810       -0.74705633878012
C           29.66071211766276       -3.43450036750709       -1.01284550075681
C           28.38745901106481       -2.83526787118371       -0.79304927548546
N           28.62081047734372       -1.54335580757226       -0.41591532557487
C           27.12576745839642       -3.42156077855326       -0.94486151583574
C           27.09906118138051       -4.85097326795139       -1.33445282344962
C           26.48863323604608       -5.26842117567524       -2.51689176392390
C           26.49266145965870       -6.61582539365962       -2.84096572496806
N           27.05215770703836       -7.54446837642868       -2.07185935188042
C           27.63355255117449       -7.15587789681933       -0.94158360220872
C           27.68513311172159       -5.83193808619929       -0.53485848238331
C           25.90773506555562       -2.76392901096068       -0.75619818478299
C           24.61193986846442       -3.41068469644312       -0.85997873828728
C           23.68868517864129       -2.45717803957744       -0.61851539255806
N           25.74999059553934       -1.45019154167665       -0.43537244738391
C           24.42170360419941       -1.23361412851128       -0.35658201070257
C           23.78116531756469       -0.01088334776792       -0.06928069687215
C           24.41330173533662        1.20701577475419        0.24599937922627
C           23.76579836282376        2.44112389311206        0.51874571467469
C           24.72887212238667        3.36939868437283        0.80250641808682
C           25.99522657265839        2.72697938918926        0.71838940427559
N           25.75290247401066        1.42472759253239        0.36922406940527
C           27.25513515931387        3.30012280687122        0.92132983786407
C           27.28205348119779        4.72523573361930        1.32506972182925
C           26.67703043899844        5.15670841164150        2.50529032263920
C           26.73157288237000        6.50024441642513        2.84130568951581
N           27.33313213967782        7.41251179500312        2.08476618778087
C           27.91010504698139        7.01040386308100        0.95678162543230
C           27.91321169612308        5.68908019382896        0.53903908450696
C           28.47376894917175        2.63011503564016        0.76982344351516
C           29.77492254126138        3.22718390363067        1.02884423564720
C           30.69152479324322        2.27447196608695        0.76522951016116
C           29.95135294891700        1.09284710289077        0.35825740915538
N           28.61883254485438        1.34102799829512        0.38191101806980
H           31.65362312671340       -0.10684817768972        0.00813229185722
H           31.68928966043444       -2.61727613094316       -0.81108906284248
H           29.81556193106750       -4.44937859232515       -1.34140537794704
H           27.89290719180183       -0.86891553108656       -0.20488721031087
H           26.03091183226127       -4.54532222109059       -3.18139396370935
H           26.02596422357749       -6.96401644469601       -3.75782227783409
H           28.07967560237357       -7.93747761111864       -0.33342098446528
H           28.15848860888695       -5.56447848345031        0.40248723407345
H           24.45194333074665       -4.45509634126086       -1.07314705481363
H           22.61451919167096       -2.54936586715307       -0.60377170739503
H           22.69844751390637        2.59055197958436        0.49360984652495
H           24.57910745302096        4.41002759548129        1.03956518463700
H           26.47716710553899        0.72963905449685        0.22107318769746
H           26.18661146862863        4.44713345367273        3.16113887163571
H           26.27221852359878        6.85848504042656        3.75799902258691
H           28.39110691755583        7.77900348728623        0.35887090454385
H           28.38499491249506        5.40986855146248       -0.39548173774978
H           29.93916156034945        4.23437472035416        1.37647202813141
H           31.76622362556494        2.33247663337009        0.83822239071143
C           19.80802281811221        0.02389353621958       -0.10525224507360
C           18.57958661546818        0.02664666396159       -0.10480666055707
C           17.23564108718280        0.02408261296714       -0.09177846497620
C           16.01174133750779        0.03354928792864       -0.07795137835270
C           21.15198690220572        0.01656676865303       -0.10078891691711
C           22.37590918367367        0.00506194043083       -0.08741576671857

          :  Hamiltonian                  GFN1-xTB          :
         :: total energy            -198.017199998075 Eh    ::
         :: gradient norm              0.000756711214 Eh/a0 ::
         :: HOMO-LUMO gap              1.023767304710 eV    ::
         :: SCC energy              -201.300185429909 Eh    ::
         :: repulsion energy           3.380534878473 Eh    ::

    * Orbital Energies and Occupations

         #    Occupation            Energy/Eh            Energy/eV
      -------------------------------------------------------------
         1        2.0000           -0.8098152             -22.0362
       ...           ...                  ...                  ...
       169        2.0000           -0.4228786             -11.5071
       170        2.0000           -0.4218087             -11.4780
       171        2.0000           -0.4213065             -11.4643
       172        2.0000           -0.4208421             -11.4517
       173        2.0000           -0.4208190             -11.4511
       174        2.0000           -0.4204824             -11.4419
       175        2.0000           -0.4204764             -11.4417
       176        2.0000           -0.4200899             -11.4312
       177        2.0000           -0.4179641             -11.3734
       178        2.0000           -0.4046123             -11.0101
       179        2.0000           -0.4043179             -11.0021
       180        2.0000           -0.3937182             -10.7136
       181        2.0000           -0.3843211             -10.4579 (HOMO)
       182                         -0.3466983              -9.4341 (LUMO)
       183                         -0.3381008              -9.2002
       184                         -0.3376404              -9.1877
       185                         -0.3350633              -9.1175
       186                         -0.3081016              -8.3839
       187                         -0.3016188              -8.2075
       188                         -0.2898780              -7.8880
       189                         -0.2827025              -7.6927
       190                         -0.2823795              -7.6839
       191                         -0.2817245              -7.6661
       192                         -0.2794507              -7.6042
       ...                                ...                  ...
       388                          1.5750030              42.8580
      -------------------------------------------------------------
                  HL-Gap            0.0376228 Eh            1.0238 eV

Wiberg/Mayer (AO) data.
largest (>0.10) Wiberg bond orders for each atom

     #   Z sym  total        # sym  WBO       # sym  WBO       # sym  WBO
 ---------------------------------------------------------------------------
     1   6 C    3.926 --    35 C    1.366     2 C    1.347    37 H    0.971
     2   6 C    3.902 --     1 C    1.347     3 C    1.229     6 N    1.169
     3   6 C    3.954 --     4 C    1.596     2 C    1.229    38 H    0.976
     4   6 C    3.959 --     3 C    1.596     5 C    1.234    39 H    0.974
     5   6 C    3.897 --     7 C    1.302     4 C    1.234     6 N    1.178
     6   7 N    3.470 --     5 C    1.178     2 C    1.169    40 H    0.873
     7   6 C    3.939 --    14 C    1.334     5 C    1.302     8 C    1.031
     8   6 C    3.986 --    13 C    1.392     9 C    1.391     7 C    1.031
                            11 N    0.106
     9   6 C    3.987 --    10 C    1.443     8 C    1.391    41 H    0.973
                            12 C    0.108
    10   6 C    3.972 --     9 C    1.443    11 N    1.415    42 H    0.972
                            13 C    0.108
    11   7 N    3.029 --    12 C    1.416    10 C    1.415     8 C    0.106
    12   6 C    3.972 --    13 C    1.442    11 N    1.416    43 H    0.972
                             9 C    0.108
    13   6 C    3.986 --    12 C    1.442     8 C    1.392    44 H    0.973
                            10 C    0.108
    14   6 C    3.915 --     7 C    1.334    17 N    1.286    15 C    1.125
    15   6 C    3.965 --    16 C    1.710    14 C    1.125    45 H    0.973
    16   6 C    3.964 --    15 C    1.710    18 C    1.128    46 H    0.974
    17   7 N    3.022 --    18 C    1.344    14 C    1.286
    18   6 C    3.907 --    17 N    1.344    19 C    1.254    16 C    1.128
    19   6 C    3.937 --    18 C    1.254    20 C    1.251   114 C    1.192
    20   6 C    3.884 --    19 C    1.251    21 C    1.249    24 N    1.189
    21   6 C    3.959 --    22 C    1.583    20 C    1.249    47 H    0.975
    22   6 C    3.954 --    21 C    1.583    23 C    1.240    48 H    0.974
    23   6 C    3.899 --    25 C    1.309    22 C    1.240    24 N    1.166
    24   7 N    3.474 --    20 C    1.189    23 C    1.166    49 H    0.873
    25   6 C    3.925 --    32 C    1.320    23 C    1.309    26 C    1.031
    26   6 C    3.986 --    27 C    1.392    31 C    1.391    25 C    1.031
                            29 N    0.106
    27   6 C    3.986 --    28 C    1.442    26 C    1.392    50 H    0.973
                            30 C    0.108
    28   6 C    3.972 --    27 C    1.442    29 N    1.416    51 H    0.972
                            31 C    0.108
    29   7 N    3.029 --    28 C    1.416    30 C    1.415    26 C    0.106
    30   6 C    3.972 --    31 C    1.443    29 N    1.415    52 H    0.972
                            27 C    0.108
    31   6 C    3.986 --    30 C    1.443    26 C    1.391    53 H    0.973
                            28 C    0.108
    32   6 C    3.929 --    25 C    1.320    36 N    1.317    33 C    1.117
    33   6 C    3.967 --    34 C    1.723    32 C    1.117    54 H    0.973
    34   6 C    3.966 --    33 C    1.723    35 C    1.116    55 H    0.976
    35   6 C    3.928 --     1 C    1.366    36 N    1.300    34 C    1.116
    36   7 N    3.012 --    32 C    1.317    35 C    1.300
    37   1 H    1.002 --     1 C    0.971
    38   1 H    0.997 --     3 C    0.976
    39   1 H    1.004 --     4 C    0.974
    40   1 H    0.986 --     6 N    0.873
    41   1 H    1.004 --     9 C    0.973
    42   1 H    1.013 --    10 C    0.972
    43   1 H    1.013 --    12 C    0.972
    44   1 H    1.004 --    13 C    0.973
    45   1 H    1.005 --    15 C    0.973
    46   1 H    1.003 --    16 C    0.974
    47   1 H    1.002 --    21 C    0.975
    48   1 H    1.004 --    22 C    0.974
    49   1 H    0.987 --    24 N    0.873
    50   1 H    1.004 --    27 C    0.973
    51   1 H    1.013 --    28 C    0.972
    52   1 H    1.013 --    30 C    0.972
    53   1 H    1.004 --    31 C    0.973
    54   1 H    1.005 --    33 C    0.973
    55   1 H    0.998 --    34 C    0.976
    56   6 C    3.926 --    90 C    1.366    57 C    1.347    92 H    0.971
    57   6 C    3.902 --    56 C    1.347    58 C    1.229    61 N    1.169
    58   6 C    3.954 --    59 C    1.596    57 C    1.229    93 H    0.976
    59   6 C    3.959 --    58 C    1.596    60 C    1.234    94 H    0.974
    60   6 C    3.897 --    62 C    1.302    59 C    1.234    61 N    1.178
    61   7 N    3.470 --    60 C    1.178    57 C    1.169    95 H    0.873
    62   6 C    3.939 --    69 C    1.334    60 C    1.302    63 C    1.031
    63   6 C    3.986 --    68 C    1.392    64 C    1.391    62 C    1.031
                            66 N    0.106
    64   6 C    3.987 --    65 C    1.443    63 C    1.391    96 H    0.973
                            67 C    0.108
    65   6 C    3.972 --    64 C    1.443    66 N    1.415    97 H    0.972
                            68 C    0.108
    66   7 N    3.029 --    67 C    1.416    65 C    1.415    63 C    0.106
    67   6 C    3.972 --    68 C    1.442    66 N    1.416    98 H    0.972
                            64 C    0.108
    68   6 C    3.986 --    67 C    1.442    63 C    1.392    99 H    0.973
                            65 C    0.108
    69   6 C    3.915 --    62 C    1.334    72 N    1.286    70 C    1.125
    70   6 C    3.965 --    71 C    1.710    69 C    1.125   100 H    0.973
    71   6 C    3.964 --    70 C    1.710    73 C    1.128   101 H    0.974
    72   7 N    3.022 --    73 C    1.344    69 C    1.286
    73   6 C    3.907 --    72 N    1.344    74 C    1.253    71 C    1.128
    74   6 C    3.937 --    73 C    1.253    75 C    1.251   116 C    1.192
    75   6 C    3.884 --    74 C    1.251    76 C    1.249    79 N    1.189
    76   6 C    3.959 --    77 C    1.583    75 C    1.249   102 H    0.975
    77   6 C    3.954 --    76 C    1.583    78 C    1.240   103 H    0.974
    78   6 C    3.899 --    80 C    1.308    77 C    1.240    79 N    1.166
    79   7 N    3.474 --    75 C    1.189    78 C    1.166   104 H    0.873
    80   6 C    3.925 --    87 C    1.320    78 C    1.308    81 C    1.032
    81   6 C    3.986 --    82 C    1.392    86 C    1.391    80 C    1.032
                            84 N    0.106
    82   6 C    3.985 --    83 C    1.442    81 C    1.392   105 H    0.973
                            85 C    0.108
    83   6 C    3.972 --    82 C    1.442    84 N    1.416   106 H    0.972
                            86 C    0.108
    84   7 N    3.029 --    83 C    1.416    85 C    1.415    81 C    0.106
    85   6 C    3.972 --    86 C    1.443    84 N    1.415   107 H    0.972
                            82 C    0.108
    86   6 C    3.986 --    85 C    1.443    81 C    1.391   108 H    0.973
                            83 C    0.108
    87   6 C    3.929 --    80 C    1.320    91 N    1.317    88 C    1.117
    88   6 C    3.967 --    89 C    1.723    87 C    1.117   109 H    0.973
    89   6 C    3.966 --    88 C    1.723    90 C    1.116   110 H    0.976
    90   6 C    3.928 --    56 C    1.366    91 N    1.300    89 C    1.116
    91   7 N    3.012 --    87 C    1.317    90 C    1.300
    92   1 H    1.002 --    56 C    0.971
    93   1 H    0.997 --    58 C    0.976
    94   1 H    1.004 --    59 C    0.974
    95   1 H    0.986 --    61 N    0.873
    96   1 H    1.004 --    64 C    0.973
    97   1 H    1.013 --    65 C    0.972
    98   1 H    1.013 --    67 C    0.972
    99   1 H    1.004 --    68 C    0.973
   100   1 H    1.005 --    70 C    0.973
   101   1 H    1.003 --    71 C    0.974
   102   1 H    1.002 --    76 C    0.975
   103   1 H    1.004 --    77 C    0.974
   104   1 H    0.987 --    79 N    0.873
   105   1 H    1.004 --    82 C    0.973
   106   1 H    1.013 --    83 C    0.972
   107   1 H    1.013 --    85 C    0.972
   108   1 H    1.004 --    86 C    0.973
   109   1 H    1.005 --    88 C    0.973
   110   1 H    0.998 --    89 C    0.976
   111   6 C    3.925 --   112 C    2.367   115 C    1.336   114 C    0.190
   112   6 C    3.925 --   111 C    2.367   113 C    1.336   116 C    0.190
   113   6 C    3.932 --   114 C    2.447   112 C    1.336
   114   6 C    3.891 --   113 C    2.447    19 C    1.192   111 C    0.190
   115   6 C    3.932 --   116 C    2.447   111 C    1.336
   116   6 C    3.891 --   115 C    2.447    74 C    1.192   112 C    0.190
 ---------------------------------------------------------------------------

           -------------------------------------------------
          | TOTAL ENERGY             -198.017199998075 Eh   |
          | GRADIENT NORM               0.000756711214 Eh/α |
          | HOMO-LUMO GAP               1.023767304710 eV   |
           -------------------------------------------------

 * finished run on 2022/07/27 at 08:01:31.701
