   * xtb version 6.5.1 (b24c23e) compiled by 'conda@728c89f4b128' on 2022-07-12
          program call               : xtb Zn_Ph_C6_2.xyz --gfn 1 --opt -T 48

   ID    Z sym.   atoms
    1   30 Zn     1, 57
    2    6 C      2-6, 8-11, 13-29, 32-37, 58-62, 64-67, 69-85, 88-93, 113-118
    3    7 N      7, 12, 30, 31, 63, 68, 86, 87
    4    1 H      38-56, 94-112
########################################################################
[WARNING] Please study the warnings concerning your input carefully
-1- prog_main_parseArguments: Unknown option '-T' provided
########################################################################

          :  Hamiltonian                  GFN1-xTB          :
 * total energy  :  -193.3390714 Eh     change       -0.5659331E-09 Eh
 * total energy  :  -195.0255444 Eh     change       -0.1686473E+01 Eh
 * total energy  :  -195.2101853 Eh     change       -0.1846409E+00 Eh
 * total energy  :  -195.2835177 Eh     change       -0.7333248E-01 Eh
 * total energy  :  -195.3255875 Eh     change       -0.4206978E-01 Eh
 * total energy  :  -195.3446847 Eh     change       -0.1909721E-01 Eh
 * total energy  :  -195.3583364 Eh     change       -0.1365167E-01 Eh
 * total energy  :  -195.3685768 Eh     change       -0.1024035E-01 Eh
 * total energy  :  -195.3761721 Eh     change       -0.7595317E-02 Eh
 * total energy  :  -195.3817948 Eh     change       -0.5622769E-02 Eh
 * total energy  :  -195.4038795 Eh     change        0.8842144E-05 Eh
 * total energy  :  -195.4039055 Eh     change       -0.2597164E-04 Eh
 * total energy  :  -195.4039078 Eh     change       -0.2283226E-05 Eh
 * total energy  :  -195.4039156 Eh     change       -0.7860088E-05 Eh
 * total energy  :  -195.4039237 Eh     change       -0.8113802E-05 Eh
 * total energy  :  -195.4039331 Eh     change       -0.9325775E-05 Eh
 * total energy  :  -195.4039334 Eh     change       -0.3692331E-06 Eh
 * total energy  :  -195.4039400 Eh     change       -0.6527043E-05 Eh
 * total energy  :  -195.4039435 Eh     change       -0.3511734E-05 Eh
   *** GEOMETRY OPTIMIZATION CONVERGED AFTER 53 ITERATIONS ***

 final structure:
================
118
 xtb: 6.5.1 (b24c23e)
Zn          12.74287785311348       -0.03588467725939       -0.00864923224008
C            9.33156205206990       -0.06484904326005       -0.02165022092284
C            9.96114827743361       -1.30172365927053       -0.09395439567233
C            9.28723437303897       -2.56916408795513       -0.13854102515862
C           10.24636279662609       -3.52745822842887       -0.18291671752972
C           11.51910954339088       -2.85600028697372       -0.17507385072168
N           11.31054292356892       -1.50910293299710       -0.11501036900726
C           12.76989535151352       -3.48485031259248       -0.19375989627314
C           14.00939369646059       -2.83831739017199       -0.14704197721726
C           15.28792232479148       -3.49056865178869       -0.21327569447604
C           16.23575430203550       -2.52033264599283       -0.15781641817053
N           14.20541232893856       -1.48520721640129       -0.06360738287465
C           15.54749112957433       -1.26631306631588       -0.06469978446488
C           16.18070703050355       -0.00808926961970        0.00012929949031
C           15.52670859423044        1.23925768676714        0.06523889076723
C           16.19361738960150        2.50759607337840        0.10007312981577
C           15.22959766552279        3.46212204728844        0.15086587615939
C           13.96229767383321        2.78498814460471        0.15564406837685
C           12.71178268753452        3.41133770781247        0.18838850045831
C           12.69575010353223        4.89380651028631        0.27502406712731
C           12.13493382057038        5.65591632612614       -0.75074666621255
C           12.11881894652843        7.04018079288864       -0.66825001474536
C           12.65732504141698        7.67981324331997        0.44001317745044
C           13.21529917837703        6.92882031029529        1.46569494535704
C           13.23737157920320        5.54453431703128        1.38432090527816
C           11.47168723015884        2.76227409408602        0.14619789554366
C           10.18784249170827        3.40770717551941        0.22412929451073
C            9.24512268856747        2.43429136444030        0.16097752381013
C            9.94023239275402        1.18226922266534        0.05337029472315
N           11.28593726114491        1.41406978766975        0.05144429478044
N           14.18111829489188        1.43417369332342        0.09483785747123
C           12.78016219981302       -4.96821698215626       -0.26844919853476
C           12.25282749305424       -5.62425530437054       -1.38139207129115
C           12.26304869326611       -7.00941669495475       -1.44926673241838
C           12.79403648498621       -7.75562395305097       -0.40596748713488
C           13.31843957786309       -7.11041569744609        0.70581690978000
C           13.31481520449861       -5.72526684722144        0.77463312418770
H            8.24596208246202       -0.07457785895873       -0.01184115559884
H            8.21609637918854       -2.69767466531067       -0.12915272130057
H           10.10921355608321       -4.59674664042174       -0.20717376076864
H           15.43878621907937       -4.55424615962718       -0.30381583968854
H           17.30767475108820       -2.63568562017437       -0.18396207456196
H           17.26336118579317        2.64304703193832        0.08058323564530
H           15.36250758936868        4.53185686053806        0.17047594616607
H           11.72458214074438        5.15843215595652       -1.62259311318119
H           11.68446212385004        7.62218132856656       -1.47363720399559
H           12.64204067494205        8.76194369969059        0.50427314574328
H           13.63454591882509        7.42350292663290        2.33494190576735
H           13.66228079386011        4.95906837961708        2.19216158830803
H           10.03223997304786        4.46977061925195        0.32684594401405
H            8.17210868732069        2.54224436289033        0.19122215450230
H           11.84802696574898       -5.04247525614810       -2.20218462514758
H           11.85499576114022       -7.50849982226634       -2.32138174697823
H           12.79913582779227       -8.83847535231034       -0.45928098425435
H           13.73147671382142       -7.68876346103799        1.52484224843478
H           13.71397124157915       -5.22304899730728        1.64883189601199
Zn          28.79603344732287        0.03552279203757       -0.00719432133256
C           32.20734887675752        0.06528893377635       -0.01836731445293
C           31.57772758124583        1.30411692540728       -0.03705357799930
C           32.25156087154275        2.57234014349271       -0.02643587490686
C           31.29237190728944        3.53159801837644       -0.02927198583488
C           30.01967654273201        2.86034536444406       -0.05080651135825
N           30.22832021320048        1.51212953471669       -0.04928830106287
C           28.76883729371076        3.48930039695862       -0.04232059434136
C           27.52937862234804        2.84125089002317       -0.02391628737919
C           26.25083259740923        3.49571796695939       -0.06177963693568
C           25.30304215037696        2.52394539069793       -0.04854540574514
N           27.33340967658046        1.48579465268530        0.00068055459253
C           25.99134995327900        1.26709331103128       -0.00987551497251
C           25.35819109274518        0.00721225473405        0.00028370721966
C           26.01223827278931       -1.24176170319453        0.01107363914970
C           25.34538458279314       -2.51043865208613       -0.00938708016595
C           26.30945013711365       -3.46622203009673       -0.00008881146744
C           27.57672416644331       -2.78988073135389        0.03415507330686
C           28.82728052170680       -3.41695178024485        0.03986686298895
C           28.84349571611530       -4.90177678516284        0.06211013493376
C           29.40477799235740       -5.61857804799598       -0.99557412843995
C           29.42123627403927       -7.00511116825027       -0.97314435586623
C           28.88260105839202       -7.69230942475016        0.10620532668074
C           28.32413088843279       -6.98661053926507        1.16330185630869
C           28.30172423018210       -5.60010367166483        1.14199697969151
C           30.06732848483792       -2.76656082466081        0.02620865076754
C           31.35119892148942       -3.41468549187696        0.07650455558347
C           32.29387133140387       -2.43939666721285        0.05585738250538
C           31.59871094306518       -1.18392805357344        0.00237585186137
N           30.25301925617840       -1.41550368230630       -0.00997215288556
N           27.35784200267210       -1.43770723529864        0.03214403266863
C           28.75837456784189        4.97451248705718       -0.05246354492260
C           29.28565705485723        5.67836253841034       -1.13582083599911
C           29.27508459081062        7.06516040512565       -1.14351427734143
C           28.74381903546560        7.76523952042425       -0.06885815268046
C           28.21953184893368        7.07226671145925        1.01383669840217
C           28.22348404206316        5.68543918141919        1.02246393548045
H           33.29294867973262        0.07459438640115       -0.00793658077678
H           33.32268822083399        2.70038804530905       -0.01132750426718
H           31.42944842588726        4.60093959595294       -0.00702607968540
H           26.09992162149649        4.56231311231312       -0.10608000134350
H           24.23112688545456        2.64030508826788       -0.06966821804409
H           24.27564487090611       -2.64495041984382       -0.03473096857013
H           26.17659601533953       -4.53580148038909       -0.02702926081972
H           29.81527055237820       -5.08367662963216       -1.84491521411644
H           29.85600485657513       -7.55155270868607       -1.80285659995244
H           28.89818230812173       -8.77620160742695        0.12353072385286
H           27.90480067441820       -7.51860614516641        2.01018217528518
H           27.87645827474474       -5.05030996262317        1.97434810999850
H           31.50684516042583       -4.48018928271553        0.13320763172539
H           33.36688411726403       -2.54850115330634        0.08174494012825
H           29.69067402784952        5.13283237397945       -1.98104079927708
H           29.68313851061447        7.60173087319231       -1.99309844069338
H           28.73845321602533        8.84937985829479       -0.07510604429961
H           27.80632673678691        7.61442805988992        1.85716406562964
H           27.82443934616897        5.14565956004120        1.87401609896611
C           21.38373186937827       -0.00071685129530       -0.01511583688471
C           20.15515519993064        0.00182197694596       -0.01381071950785
C           18.81043052230144        0.00426178902373       -0.01304308113643
C           17.58620029681570        0.00196397247811       -0.00877066925973
C           22.72845658964987       -0.00303928284628       -0.01400303207390
C           23.95269901240736       -0.00212317906242       -0.00998002996702

          :  Hamiltonian                  GFN1-xTB          :
         :: total energy            -195.403943483535 Eh    ::
         :: gradient norm              0.000495579565 Eh/a0 ::
         :: HOMO-LUMO gap              1.097366894003 eV    ::
         :: SCC energy              -198.718282076810 Eh    ::
         :: repulsion energy           3.418469204020 Eh    ::

    * Orbital Energies and Occupations

         #    Occupation            Energy/Eh            Energy/eV
      -------------------------------------------------------------
         1        2.0000           -0.7580065             -20.6264
       ...           ...                  ...                  ...
       169        2.0000           -0.4200508             -11.4302
       170        2.0000           -0.4200507             -11.4302
       171        2.0000           -0.4192510             -11.4084
       172        2.0000           -0.4191985             -11.4070
       173        2.0000           -0.4190193             -11.4021
       174        2.0000           -0.4190067             -11.4018
       175        2.0000           -0.4189981             -11.4015
       176        2.0000           -0.4131615             -11.2427
       177        2.0000           -0.4079868             -11.1019
       178        2.0000           -0.3916461             -10.6572
       179        2.0000           -0.3916457             -10.6572
       180        2.0000           -0.3850844             -10.4787
       181        2.0000           -0.3746677             -10.1952 (HOMO)
       182                         -0.3343402              -9.0979 (LUMO)
       183                         -0.3242066              -8.8221
       184                         -0.3242066              -8.8221
       185                         -0.3227127              -8.7815
       186                         -0.2954683              -8.0401
       187                         -0.2882248              -7.8430
       188                         -0.2795530              -7.6070
       189                         -0.2622115              -7.1351
       190                         -0.2621542              -7.1336
       191                         -0.2621538              -7.1336
       192                         -0.2621397              -7.1332
       ...                                ...                  ...
       396                          1.5827350              43.0684
      -------------------------------------------------------------
                  HL-Gap            0.0403275 Eh            1.0974 eV

Wiberg/Mayer (AO) data.
largest (>0.10) Wiberg bond orders for each atom

     #   Z sym  total        # sym  WBO       # sym  WBO       # sym  WBO
 ---------------------------------------------------------------------------
     1  30 Zn   1.998 --    30 N    0.460     7 N    0.460    31 N    0.456
                            12 N    0.456
     2   6 C    3.927 --    29 C    1.357     3 C    1.357    38 H    0.971
     3   6 C    3.922 --     2 C    1.357     7 N    1.233     4 C    1.171
     4   6 C    3.960 --     5 C    1.658     3 C    1.171    39 H    0.976
     5   6 C    3.963 --     4 C    1.658     6 C    1.173    40 H    0.973
     6   6 C    3.918 --     8 C    1.314     7 N    1.244     5 C    1.173
     7   7 N    3.294 --     6 C    1.244     3 C    1.233     1 Zn   0.460
     8   6 C    3.934 --     9 C    1.325     6 C    1.314    32 C    1.025
     9   6 C    3.913 --     8 C    1.325    12 N    1.224    10 C    1.179
    10   6 C    3.960 --    11 C    1.646     9 C    1.179    41 H    0.973
    11   6 C    3.962 --    10 C    1.646    13 C    1.186    42 H    0.974
    12   7 N    3.297 --    13 C    1.264     9 C    1.224     1 Zn   0.456
    13   6 C    3.902 --    12 N    1.264    14 C    1.253    11 C    1.186
    14   6 C    3.938 --    15 C    1.253    13 C    1.253   116 C    1.192
    15   6 C    3.902 --    31 N    1.263    14 C    1.253    16 C    1.186
    16   6 C    3.962 --    17 C    1.646    15 C    1.186    43 H    0.974
    17   6 C    3.960 --    16 C    1.646    18 C    1.179    44 H    0.973
    18   6 C    3.913 --    19 C    1.325    31 N    1.224    17 C    1.179
    19   6 C    3.934 --    18 C    1.325    26 C    1.314    20 C    1.026
    20   6 C    3.988 --    25 C    1.396    21 C    1.395    19 C    1.026
                            23 C    0.108
    21   6 C    3.988 --    22 C    1.447    20 C    1.395    45 H    0.973
                            24 C    0.110
    22   6 C    3.995 --    21 C    1.447    23 C    1.438    46 H    0.973
                            25 C    0.110
    23   6 C    3.990 --    24 C    1.438    22 C    1.438    47 H    0.974
                            20 C    0.108
    24   6 C    3.995 --    25 C    1.447    23 C    1.438    48 H    0.973
                            21 C    0.110
    25   6 C    3.988 --    24 C    1.447    20 C    1.396    49 H    0.973
                            22 C    0.110
    26   6 C    3.918 --    19 C    1.314    30 N    1.244    27 C    1.173
    27   6 C    3.963 --    28 C    1.658    26 C    1.173    50 H    0.973
    28   6 C    3.960 --    27 C    1.658    29 C    1.171    51 H    0.976
    29   6 C    3.922 --     2 C    1.357    30 N    1.233    28 C    1.171
    30   7 N    3.294 --    26 C    1.244    29 C    1.233     1 Zn   0.460
    31   7 N    3.297 --    15 C    1.263    18 C    1.224     1 Zn   0.456
    32   6 C    3.988 --    37 C    1.396    33 C    1.396     8 C    1.025
                            35 C    0.108
    33   6 C    3.988 --    34 C    1.447    32 C    1.396    52 H    0.973
                            36 C    0.110
    34   6 C    3.995 --    33 C    1.447    35 C    1.438    53 H    0.973
                            37 C    0.110
    35   6 C    3.990 --    34 C    1.438    36 C    1.438    54 H    0.974
                            32 C    0.108
    36   6 C    3.995 --    37 C    1.447    35 C    1.438    55 H    0.973
                            33 C    0.110
    37   6 C    3.988 --    36 C    1.447    32 C    1.396    56 H    0.973
                            34 C    0.110
    38   1 H    1.002 --     2 C    0.971
    39   1 H    0.998 --     4 C    0.976
    40   1 H    1.005 --     5 C    0.973
    41   1 H    1.005 --    10 C    0.973
    42   1 H    1.002 --    11 C    0.974
    43   1 H    1.002 --    16 C    0.974
    44   1 H    1.005 --    17 C    0.973
    45   1 H    1.005 --    21 C    0.973
    46   1 H    1.003 --    22 C    0.973
    47   1 H    1.003 --    23 C    0.974
    48   1 H    1.003 --    24 C    0.973
    49   1 H    1.005 --    25 C    0.973
    50   1 H    1.005 --    27 C    0.973
    51   1 H    0.998 --    28 C    0.976
    52   1 H    1.005 --    33 C    0.973
    53   1 H    1.003 --    34 C    0.973
    54   1 H    1.003 --    35 C    0.974
    55   1 H    1.003 --    36 C    0.973
    56   1 H    1.005 --    37 C    0.973
    57  30 Zn   1.998 --    86 N    0.460    63 N    0.460    87 N    0.456
                            68 N    0.456
    58   6 C    3.927 --    85 C    1.357    59 C    1.357    94 H    0.971
    59   6 C    3.922 --    58 C    1.357    63 N    1.233    60 C    1.171
    60   6 C    3.960 --    61 C    1.658    59 C    1.171    95 H    0.976
    61   6 C    3.963 --    60 C    1.658    62 C    1.173    96 H    0.973
    62   6 C    3.918 --    64 C    1.314    63 N    1.244    61 C    1.173
    63   7 N    3.294 --    62 C    1.244    59 C    1.233    57 Zn   0.460
    64   6 C    3.934 --    65 C    1.325    62 C    1.314    88 C    1.025
    65   6 C    3.913 --    64 C    1.325    68 N    1.224    66 C    1.179
    66   6 C    3.960 --    67 C    1.646    65 C    1.179    97 H    0.973
    67   6 C    3.962 --    66 C    1.646    69 C    1.186    98 H    0.974
    68   7 N    3.297 --    69 C    1.264    65 C    1.224    57 Zn   0.456
    69   6 C    3.902 --    68 N    1.264    70 C    1.253    67 C    1.186
    70   6 C    3.938 --    71 C    1.253    69 C    1.253   118 C    1.192
    71   6 C    3.902 --    87 N    1.263    70 C    1.253    72 C    1.186
    72   6 C    3.962 --    73 C    1.646    71 C    1.186    99 H    0.974
    73   6 C    3.960 --    72 C    1.646    74 C    1.179   100 H    0.973
    74   6 C    3.913 --    75 C    1.325    87 N    1.224    73 C    1.179
    75   6 C    3.934 --    74 C    1.325    82 C    1.314    76 C    1.026
    76   6 C    3.988 --    81 C    1.396    77 C    1.395    75 C    1.026
                            79 C    0.108
    77   6 C    3.988 --    78 C    1.447    76 C    1.395   101 H    0.973
                            80 C    0.110
    78   6 C    3.995 --    77 C    1.447    79 C    1.438   102 H    0.973
                            81 C    0.110
    79   6 C    3.990 --    80 C    1.438    78 C    1.438   103 H    0.974
                            76 C    0.108
    80   6 C    3.995 --    81 C    1.447    79 C    1.438   104 H    0.973
                            77 C    0.110
    81   6 C    3.988 --    80 C    1.447    76 C    1.396   105 H    0.973
                            78 C    0.110
    82   6 C    3.918 --    75 C    1.314    86 N    1.244    83 C    1.173
    83   6 C    3.963 --    84 C    1.658    82 C    1.173   106 H    0.973
    84   6 C    3.960 --    83 C    1.658    85 C    1.171   107 H    0.976
    85   6 C    3.922 --    58 C    1.357    86 N    1.233    84 C    1.171
    86   7 N    3.294 --    82 C    1.244    85 C    1.233    57 Zn   0.460
    87   7 N    3.297 --    71 C    1.263    74 C    1.224    57 Zn   0.456
    88   6 C    3.988 --    93 C    1.396    89 C    1.396    64 C    1.025
                            91 C    0.108
    89   6 C    3.988 --    90 C    1.447    88 C    1.396   108 H    0.973
                            92 C    0.110
    90   6 C    3.995 --    89 C    1.447    91 C    1.438   109 H    0.973
                            93 C    0.110
    91   6 C    3.990 --    90 C    1.438    92 C    1.438   110 H    0.974
                            88 C    0.108
    92   6 C    3.995 --    93 C    1.447    91 C    1.438   111 H    0.973
                            89 C    0.110
    93   6 C    3.988 --    92 C    1.447    88 C    1.396   112 H    0.973
                            90 C    0.110
    94   1 H    1.002 --    58 C    0.971
    95   1 H    0.998 --    60 C    0.976
    96   1 H    1.005 --    61 C    0.973
    97   1 H    1.005 --    66 C    0.973
    98   1 H    1.002 --    67 C    0.974
    99   1 H    1.002 --    72 C    0.974
   100   1 H    1.005 --    73 C    0.973
   101   1 H    1.005 --    77 C    0.973
   102   1 H    1.003 --    78 C    0.973
   103   1 H    1.003 --    79 C    0.974
   104   1 H    1.003 --    80 C    0.973
   105   1 H    1.005 --    81 C    0.973
   106   1 H    1.005 --    83 C    0.973
   107   1 H    0.998 --    84 C    0.976
   108   1 H    1.005 --    89 C    0.973
   109   1 H    1.003 --    90 C    0.973
   110   1 H    1.003 --    91 C    0.974
   111   1 H    1.003 --    92 C    0.973
   112   1 H    1.005 --    93 C    0.973
   113   6 C    3.926 --   114 C    2.368   117 C    1.335   116 C    0.190
   114   6 C    3.926 --   113 C    2.368   115 C    1.335   118 C    0.190
   115   6 C    3.933 --   116 C    2.448   114 C    1.335
   116   6 C    3.891 --   115 C    2.448    14 C    1.192   113 C    0.190
   117   6 C    3.933 --   118 C    2.448   113 C    1.335
   118   6 C    3.891 --   117 C    2.448    70 C    1.192   114 C    0.190
 ---------------------------------------------------------------------------

           -------------------------------------------------
          | TOTAL ENERGY             -195.403943483535 Eh   |
          | GRADIENT NORM               0.000495579565 Eh/α |
          | HOMO-LUMO GAP               1.097366894003 eV   |
           -------------------------------------------------

 * finished run on 2022/07/30 at 11:27:20.836
