   * xtb version 6.5.1 (b24c23e) compiled by 'conda@728c89f4b128' on 2022-07-12
          program call               : xtb Ni_PhCN_C4_2.xyz --gfn 1 --opt -T 48

   ID    Z sym.   atoms
    1   28 Ni     1, 59
    2    6 C      2-6, 8-13, 15-19, 21-26, 28-33, 35-40, 60-64, 66-71, 73-77,
                  79-84, 86-91, 93-98, 117-120
    3    7 N      7, 14, 20, 27, 34, 41, 65, 72, 78, 85, 92, 99
    4    1 H      42-58, 100-116
########################################################################
[WARNING] Please study the warnings concerning your input carefully
-1- prog_main_parseArguments: Unknown option '-T' provided
########################################################################

          :  Hamiltonian                  GFN1-xTB          :
 * total energy  :  -216.6444183 Eh     change       -0.3103168E-08 Eh
 * total energy  :  -216.7828224 Eh     change       -0.1384041E+00 Eh
 * total energy  :  -216.8222779 Eh     change       -0.3945550E-01 Eh
 * total energy  :  -216.8470608 Eh     change       -0.2478293E-01 Eh
 * total energy  :  -216.8567514 Eh     change       -0.9690585E-02 Eh
 * total energy  :  -216.8619999 Eh     change       -0.5248532E-02 Eh
 * total energy  :  -216.8669415 Eh     change       -0.4941540E-02 Eh
 * total energy  :  -216.8688674 Eh     change       -0.1925896E-02 Eh
 * total energy  :  -216.8708111 Eh     change       -0.1943700E-02 Eh
 * total energy  :  -216.8710083 Eh     change       -0.1972379E-03 Eh
 * total energy  :  -216.8740852 Eh     change        0.1621338E-05 Eh
 * total energy  :  -216.8741051 Eh     change       -0.1993529E-04 Eh
 * total energy  :  -216.8741149 Eh     change       -0.9783059E-05 Eh
 * total energy  :  -216.8741251 Eh     change       -0.1013545E-04 Eh
 * total energy  :  -216.8741328 Eh     change       -0.7775970E-05 Eh
 * total energy  :  -216.8741377 Eh     change       -0.4834028E-05 Eh
 * total energy  :  -216.8741439 Eh     change       -0.6247715E-05 Eh
 * total energy  :  -216.8741518 Eh     change       -0.7889419E-05 Eh
 * total energy  :  -216.8741561 Eh     change       -0.4273451E-05 Eh
   *** GEOMETRY OPTIMIZATION CONVERGED AFTER 33 ITERATIONS ***

 final structure:
================
120
 xtb: 6.5.1 (b24c23e)
Ni          16.89835137622594        0.02762108096540       -0.00178102732475
C           13.50896528763295        0.04400577231341        0.15246972215178
C           14.16634890664405        1.25483562093748        0.21471121313575
C           13.49595197342645        2.51561828362309        0.30941070950430
C           14.45817479926783        3.45737635109901        0.44663758580208
C           15.71589849128395        2.76864332875746        0.44759661106702
N           15.52801786834731        1.42144540747053        0.26628162758888
C           16.94016688427035        3.39147263447307        0.65315212276287
C           16.95970999278483        4.84395722252236        0.94537030360829
C           16.33078766746242        5.34326056757000        2.08812228310897
C           16.35431289248779        6.69729738979896        2.37022358394626
C           17.00571313065983        7.58189681558249        1.50552762285107
C           17.03128656608538        8.97598776638255        1.79275203164672
N           17.05147802073762       10.10254243935095        2.02626233908399
C           17.63255913193274        7.08746112097634        0.35785795716098
C           17.61047646187598        5.73140159904632        0.08539431198472
C           18.14784210675399        2.70760531787467        0.60350055397985
C           19.41744512592553        3.31387463312626        0.86861987432235
C           20.35789876441594        2.36468663676429        0.64683870820170
N           18.30792812960036        1.38418726058120        0.26208691431624
C           19.66092131243936        1.18058110141130        0.25661343679534
C           20.30850028898259        0.00688603701485       -0.13577955500065
C           19.61758503031879       -1.15554216359581       -0.48469609187507
C           20.26666161633372       -2.34523744343539       -0.93563677667351
C           19.29956392674387       -3.28130100308294       -1.08878905453849
C           18.06286128822291       -2.66222338926507       -0.71853714462171
N           18.26564326575367       -1.34235283691206       -0.38566027014174
C           16.84861371626113       -3.33408556731745       -0.66418337121800
C           16.82753667640849       -4.78756538834071       -0.95107074050867
C           16.09338716427370       -5.28592584398507       -2.02964303514229
C           16.07395624675535       -6.64212284807966       -2.30170218417240
C           16.78734807458764       -7.52979396141486       -1.49075156443602
C           16.76783190010491       -8.92635379000957       -1.76598213972576
N           16.75259436161234      -10.05528759758647       -1.98841447944403
C           17.52049233758688       -7.03610403690739       -0.40753061596147
C           17.54074157385444       -5.67800577532465       -0.14538197207901
C           15.65340837099687       -2.70017237824238       -0.34952336744506
C           14.39437038328104       -3.37698950862137       -0.23560900097468
C           13.45801582953496       -2.42673714091552       -0.00767849326679
C           14.14651096972139       -1.17270636766602        0.02847522545005
N           15.49591573302016       -1.35202593622529       -0.14846390352987
H           12.42645266771677        0.04877163769047        0.20293231402113
H           12.42578461470429        2.64274158214705        0.27271675247301
H           14.34098358760146        4.52515687843768        0.53565577560750
H           15.83495762034244        4.65851442201144        2.76685607729442
H           15.87040928936467        7.07692514949808        3.26249270227714
H           18.13489319237867        7.77112929676415       -0.31643682755873
H           18.08908865909996        5.35232469827896       -0.81049565452719
H           19.56057679451939        4.33285942752655        1.18895881119166
H           21.42931924879232        2.44398111181039        0.73524764739657
H           21.32666929928205       -2.43588598476708       -1.10975086949011
H           19.40354748891717       -4.29940424184910       -1.42663486065737
H           15.54764717050140       -4.59934940748634       -2.66695947693673
H           15.50745224024528       -7.02125326601108       -3.14418270273046
H           18.07110855129046       -7.72201868142274        0.22550042248412
H           18.10164328946821       -5.29960884176225        0.70171864273521
H           14.25849510139044       -4.44314971862338       -0.31695137766401
H           12.39451661790216       -2.54404947520305        0.12637838413930
Ni          30.32526941580328       -0.02655695858512        0.00151669382396
C           33.71465162070767       -0.03460078986569        0.15492259343883
C           33.05726083183549       -1.24021660170370        0.28328955771448
C           33.72760045103929       -2.49413322749444        0.44548402368565
C           32.76536671567575       -3.42701382748182        0.63378774187498
C           31.50769312484840       -2.73909123465834        0.59833086408030
N           31.69558303958217       -1.40367998357823        0.34450844818331
C           30.28354098550064       -3.35004288483877        0.83760348641151
C           30.26433253782464       -4.78479413382085        1.20723381915992
C           30.89404918781288       -5.22227404616760        2.37462047235680
C           30.87069160643858       -6.55924168830029        2.72891330305146
C           30.21866061904936       -7.48879747544102        1.91333217139685
C           30.19274935055371       -8.86562705706681        2.27439574938559
N           30.17023542336737       -9.97907812898136        2.56380607792247
C           29.59122912201882       -7.05651465964716        0.74108615626883
C           29.61318165485068       -5.71701517342790        0.39629757432051
C           29.07575150838370       -2.67003119792615        0.75133387770200
C           27.80612535477940       -3.26126933193474        1.04831818363616
C           26.86558465746248       -2.32570302467282        0.77496828866263
N           28.91556359795119       -1.36701374577985        0.33872145908581
C           27.56252649301474       -1.16435938108457        0.32147423143718
C           26.91513120436011       -0.01376255172449       -0.13448703518494
C           27.60620268717289        1.12802903323420       -0.54561243124278
C           26.95708770893620        2.29123964665927       -1.06090007846319
C           27.92406574335558        3.21776974074102       -1.26442978061296
C           29.16070994863238        2.61994497658444       -0.86049186573609
N           28.95803855350247        1.32025636257073       -0.45622829864308
C           30.37483156403364        3.29405979050792       -0.84337040012972
C           30.39493793406411        4.72963974085032       -1.20937705492523
C           31.12857827935044        5.16870840918508       -2.31373677057987
C           31.14837639476765        6.50828306354969       -2.65842008359025
C           30.43578481885549        7.43877178511682       -1.89610560594357
C           30.45871052118725        8.81888615188636       -2.24421190805131
N           30.47937359913449        9.93353411181766       -2.52959166675093
C           29.70149584141869        7.00428741397628       -0.78862980361551
C           29.68094334658866        5.66230035435533       -0.45368584234588
C           31.57029483253118        2.67846151984778       -0.49512385811847
C           32.82954103718978        3.36020627690767       -0.41937382230564
C           33.76588274488862        2.42367758629016       -0.14028422171237
C           33.07719694458923        1.17365340484130       -0.03489835251081
N           31.72771624337998        1.34327445674683       -0.22056257096979
H           34.79720966106370       -0.03684787922927        0.20482759954976
H           34.79770947928257       -2.62339369095962        0.41506119854184
H           32.88253816000931       -4.48847768411911        0.77998376722222
H           31.39047431844125       -4.50220609851236        3.01529678154718
H           31.35520764266472       -6.89045664527072        3.63993327722710
H           29.08856485714917       -7.77539936035779        0.10472534379809
H           29.13424091691721       -5.38650211609699       -0.51845041068410
H           27.66300725328024       -4.26145689695635        1.42326937582580
H           25.79410599461678       -2.40021753612008        0.86677560879044
H           25.89716868809040        2.37207267115784       -1.24030926525775
H           27.81996259416759        4.21583411622625       -1.65745632233221
H           31.67357336729156        4.44844628480117       -2.91337356557140
H           31.71476676003250        6.84140213486669       -3.52017732415479
H           29.15047587194141        7.72323576149173       -0.19372745848584
H           29.11917187445928        5.33026200857107        0.41209387319165
H           32.96549786512007        4.42025959926579       -0.55937768870371
H           34.82954091981623        2.54772175622453       -0.01366830554626
C           22.93600854078188       -0.00445784976261       -0.18678569894252
C           21.71520347302593       -0.00351544172345       -0.17228946061146
C           24.28765232965821       -0.00778325305403       -0.18511627387745
C           25.50847410760958       -0.00488659976053       -0.17316708411153

          :  Hamiltonian                  GFN1-xTB          :
         :: total energy            -216.874156076003 Eh    ::
         :: gradient norm              0.000783242516 Eh/a0 ::
         :: HOMO-LUMO gap              1.286265361867 eV    ::
         :: SCC energy              -220.490037324955 Eh    ::
         :: repulsion energy           3.726135476523 Eh    ::

    * Orbital Energies and Occupations

         #    Occupation            Energy/Eh            Energy/eV
      -------------------------------------------------------------
         1        2.0000           -0.7927556             -21.5720
       ...           ...                  ...                  ...
       189        2.0000           -0.4370188             -11.8919
       190        2.0000           -0.4102199             -11.1627
       191        2.0000           -0.4102043             -11.1622
       192        2.0000           -0.4099003             -11.1540
       193        2.0000           -0.4098988             -11.1539
       194        2.0000           -0.4089860             -11.1291
       195        2.0000           -0.4089842             -11.1290
       196        2.0000           -0.4079316             -11.1004
       197        2.0000           -0.4079306             -11.1004
       198        2.0000           -0.4078452             -11.0980
       199        2.0000           -0.4078430             -11.0980
       200        2.0000           -0.4064960             -11.0613
       201        2.0000           -0.3975115             -10.8168 (HOMO)
       202                         -0.3502421              -9.5306 (LUMO)
       203                         -0.3427777              -9.3275
       204                         -0.3427748              -9.3274
       205                         -0.3401524              -9.2560
       206                         -0.3400812              -9.2541
       207                         -0.3393355              -9.2338
       208                         -0.3149587              -8.5705
       209                         -0.3124862              -8.5032
       210                         -0.3050137              -8.2998
       211                         -0.3050092              -8.2997
       212                         -0.3008158              -8.1856
       ...                                ...                  ...
       422                          1.5071883              41.0127
      -------------------------------------------------------------
                  HL-Gap            0.0472694 Eh            1.2863 eV

Wiberg/Mayer (AO) data.
largest (>0.10) Wiberg bond orders for each atom

     #   Z sym  total        # sym  WBO       # sym  WBO       # sym  WBO
 ---------------------------------------------------------------------------
     1  28 Ni   3.013 --    41 N    0.664     7 N    0.664    27 N    0.661
                            20 N    0.660
     2   6 C    3.936 --    40 C    1.364     3 C    1.364    42 H    0.970
     3   6 C    3.922 --     2 C    1.364     7 N    1.212     4 C    1.174
     4   6 C    3.960 --     5 C    1.650     3 C    1.174    43 H    0.975
     5   6 C    3.963 --     4 C    1.650     6 C    1.176    44 H    0.973
     6   6 C    3.920 --     8 C    1.322     7 N    1.222     5 C    1.176
     7   7 N    3.402 --     6 C    1.222     3 C    1.212     1 Ni   0.664
     8   6 C    3.939 --    17 C    1.326     6 C    1.322     9 C    1.029
     9   6 C    3.963 --    16 C    1.386    10 C    1.386     8 C    1.029
    10   6 C    3.988 --    11 C    1.463     9 C    1.386    45 H    0.971
                            15 C    0.102
    11   6 C    3.993 --    10 C    1.463    12 C    1.364    46 H    0.972
                            16 C    0.102
    12   6 C    3.985 --    15 C    1.364    11 C    1.364    13 C    1.098
    13   6 C    3.958 --    14 N    2.820    12 C    1.098
    14   7 N    2.973 --    13 C    2.820
    15   6 C    3.993 --    16 C    1.463    12 C    1.364    47 H    0.972
                            10 C    0.102
    16   6 C    3.988 --    15 C    1.463     9 C    1.386    48 H    0.971
                            11 C    0.102
    17   6 C    3.915 --     8 C    1.326    20 N    1.208    18 C    1.183
    18   6 C    3.959 --    19 C    1.637    17 C    1.183    49 H    0.973
    19   6 C    3.961 --    18 C    1.637    21 C    1.190    50 H    0.973
    20   7 N    3.406 --    21 C    1.236    17 C    1.208     1 Ni   0.660
    21   6 C    3.905 --    22 C    1.267    20 N    1.236    19 C    1.190
    22   6 C    3.945 --    23 C    1.268    21 C    1.267   118 C    1.175
    23   6 C    3.905 --    22 C    1.268    27 N    1.236    24 C    1.191
    24   6 C    3.961 --    25 C    1.637    23 C    1.191    51 H    0.973
    25   6 C    3.959 --    24 C    1.637    26 C    1.183    52 H    0.973
    26   6 C    3.915 --    28 C    1.326    27 N    1.208    25 C    1.183
    27   7 N    3.406 --    23 C    1.236    26 C    1.208     1 Ni   0.661
    28   6 C    3.939 --    26 C    1.326    37 C    1.322    29 C    1.029
    29   6 C    3.963 --    30 C    1.386    36 C    1.386    28 C    1.029
    30   6 C    3.988 --    31 C    1.463    29 C    1.386    53 H    0.971
                            35 C    0.102
    31   6 C    3.993 --    30 C    1.463    32 C    1.364    54 H    0.972
                            36 C    0.102
    32   6 C    3.985 --    31 C    1.364    35 C    1.364    33 C    1.098
    33   6 C    3.958 --    34 N    2.820    32 C    1.098
    34   7 N    2.973 --    33 C    2.820
    35   6 C    3.993 --    36 C    1.463    32 C    1.364    55 H    0.972
                            30 C    0.102
    36   6 C    3.988 --    35 C    1.463    29 C    1.386    56 H    0.971
                            31 C    0.102
    37   6 C    3.920 --    28 C    1.322    41 N    1.222    38 C    1.176
    38   6 C    3.963 --    39 C    1.650    37 C    1.176    57 H    0.973
    39   6 C    3.960 --    38 C    1.650    40 C    1.174    58 H    0.975
    40   6 C    3.922 --     2 C    1.364    41 N    1.212    39 C    1.174
    41   7 N    3.402 --    37 C    1.222    40 C    1.212     1 Ni   0.664
    42   1 H    1.000 --     2 C    0.970
    43   1 H    0.997 --     4 C    0.975
    44   1 H    1.004 --     5 C    0.973
    45   1 H    1.003 --    10 C    0.971
    46   1 H    1.000 --    11 C    0.972
    47   1 H    1.000 --    15 C    0.972
    48   1 H    1.003 --    16 C    0.971
    49   1 H    1.004 --    18 C    0.973
    50   1 H    1.002 --    19 C    0.973
    51   1 H    1.002 --    24 C    0.973
    52   1 H    1.004 --    25 C    0.973
    53   1 H    1.003 --    30 C    0.971
    54   1 H    1.000 --    31 C    0.972
    55   1 H    1.000 --    35 C    0.972
    56   1 H    1.003 --    36 C    0.971
    57   1 H    1.004 --    38 C    0.973
    58   1 H    0.997 --    39 C    0.975
    59  28 Ni   3.013 --    65 N    0.664    99 N    0.664    85 N    0.661
                            78 N    0.660
    60   6 C    3.936 --    61 C    1.364    98 C    1.364   100 H    0.970
    61   6 C    3.922 --    60 C    1.364    65 N    1.212    62 C    1.174
    62   6 C    3.960 --    63 C    1.650    61 C    1.174   101 H    0.975
    63   6 C    3.963 --    62 C    1.650    64 C    1.176   102 H    0.973
    64   6 C    3.920 --    66 C    1.322    65 N    1.222    63 C    1.176
    65   7 N    3.402 --    64 C    1.222    61 C    1.212    59 Ni   0.664
    66   6 C    3.939 --    75 C    1.326    64 C    1.322    67 C    1.029
    67   6 C    3.963 --    68 C    1.386    74 C    1.386    66 C    1.029
    68   6 C    3.988 --    69 C    1.463    67 C    1.386   103 H    0.971
                            73 C    0.102
    69   6 C    3.993 --    68 C    1.463    70 C    1.365   104 H    0.972
                            74 C    0.102
    70   6 C    3.985 --    69 C    1.365    73 C    1.364    71 C    1.098
    71   6 C    3.958 --    72 N    2.820    70 C    1.098
    72   7 N    2.973 --    71 C    2.820
    73   6 C    3.993 --    74 C    1.463    70 C    1.364   105 H    0.972
                            68 C    0.102
    74   6 C    3.988 --    73 C    1.463    67 C    1.386   106 H    0.971
                            69 C    0.102
    75   6 C    3.915 --    66 C    1.326    78 N    1.208    76 C    1.183
    76   6 C    3.959 --    77 C    1.637    75 C    1.183   107 H    0.973
    77   6 C    3.961 --    76 C    1.637    79 C    1.190   108 H    0.973
    78   7 N    3.406 --    79 C    1.236    75 C    1.208    59 Ni   0.660
    79   6 C    3.905 --    80 C    1.267    78 N    1.236    77 C    1.190
    80   6 C    3.945 --    81 C    1.268    79 C    1.267   120 C    1.175
    81   6 C    3.905 --    80 C    1.268    85 N    1.236    82 C    1.191
    82   6 C    3.961 --    83 C    1.637    81 C    1.191   109 H    0.973
    83   6 C    3.959 --    82 C    1.637    84 C    1.183   110 H    0.973
    84   6 C    3.915 --    86 C    1.326    85 N    1.208    83 C    1.183
    85   7 N    3.406 --    81 C    1.236    84 C    1.208    59 Ni   0.661
    86   6 C    3.939 --    84 C    1.326    95 C    1.322    87 C    1.029
    87   6 C    3.963 --    88 C    1.386    94 C    1.386    86 C    1.029
    88   6 C    3.988 --    89 C    1.463    87 C    1.386   111 H    0.971
                            93 C    0.102
    89   6 C    3.993 --    88 C    1.463    90 C    1.364   112 H    0.972
                            94 C    0.102
    90   6 C    3.985 --    93 C    1.364    89 C    1.364    91 C    1.098
    91   6 C    3.958 --    92 N    2.820    90 C    1.098
    92   7 N    2.973 --    91 C    2.820
    93   6 C    3.993 --    94 C    1.463    90 C    1.364   113 H    0.972
                            88 C    0.102
    94   6 C    3.988 --    93 C    1.463    87 C    1.386   114 H    0.971
                            89 C    0.102
    95   6 C    3.920 --    86 C    1.322    99 N    1.222    96 C    1.176
    96   6 C    3.963 --    97 C    1.650    95 C    1.176   115 H    0.973
    97   6 C    3.960 --    96 C    1.650    98 C    1.174   116 H    0.975
    98   6 C    3.922 --    60 C    1.364    99 N    1.212    97 C    1.174
    99   7 N    3.402 --    95 C    1.222    98 C    1.212    59 Ni   0.664
   100   1 H    1.000 --    60 C    0.970
   101   1 H    0.997 --    62 C    0.975
   102   1 H    1.004 --    63 C    0.973
   103   1 H    1.003 --    68 C    0.971
   104   1 H    1.000 --    69 C    0.972
   105   1 H    1.000 --    73 C    0.972
   106   1 H    1.003 --    74 C    0.971
   107   1 H    1.004 --    76 C    0.973
   108   1 H    1.002 --    77 C    0.973
   109   1 H    1.002 --    82 C    0.973
   110   1 H    1.004 --    83 C    0.973
   111   1 H    1.003 --    88 C    0.971
   112   1 H    1.000 --    89 C    0.972
   113   1 H    1.000 --    93 C    0.972
   114   1 H    1.003 --    94 C    0.971
   115   1 H    1.004 --    96 C    0.973
   116   1 H    0.997 --    97 C    0.975
   117   6 C    3.938 --   118 C    2.491   119 C    1.297
   118   6 C    3.925 --   117 C    2.491    22 C    1.175   120 C    0.199
   119   6 C    3.938 --   120 C    2.491   117 C    1.297
   120   6 C    3.925 --   119 C    2.491    80 C    1.175   118 C    0.199
 ---------------------------------------------------------------------------

           -------------------------------------------------
          | TOTAL ENERGY             -216.874156076003 Eh   |
          | GRADIENT NORM               0.000783242516 Eh/α |
          | HOMO-LUMO GAP               1.286265361867 eV   |
           -------------------------------------------------

 * finished run on 2022/07/30 at 11:32:55.485
