   * xtb version 6.5.1 (b24c23e) compiled by 'conda@728c89f4b128' on 2022-07-12
          program call               : xtb Cu_m-CP_C6_3.xyz --gfn 1 --opt -T 48

   ID    Z sym.   atoms
    1   29 Cu     1, 63, 137
    2    6 C      2-6, 8-12, 15-20, 22-27, 29-35, 38-42, 64-68, 70-74, 77-82,
                  84-89, 91-97, 100-104, 125-136, 138-142, 144-148, 151-156,
                  158-163, 165-171, 174-178
    3    7 N      7, 21, 28, 43, 69, 83, 90, 105, 143, 157, 164, 179
    4    8 O      13, 14, 36, 37, 75, 76, 98, 99, 149, 150, 172, 173
    5    1 H      44-62, 106-124, 180-197
########################################################################
[WARNING] Please study the warnings concerning your input carefully
-1- prog_main_parseArguments: Unknown option '-T' provided
########################################################################

          :  Hamiltonian                  GFN1-xTB          :
 * total energy  :  -378.3873518 Eh     change        0.1204307E-07 Eh
 * total energy  :  -378.6338214 Eh     change       -0.2464696E+00 Eh
 * total energy  :  -378.7866541 Eh     change       -0.1528327E+00 Eh
 * total energy  :  -378.8625918 Eh     change       -0.7593776E-01 Eh
 * total energy  :  -378.9195636 Eh     change       -0.5697174E-01 Eh
 * total energy  :  -378.9608188 Eh     change       -0.4125522E-01 Eh
 * total energy  :  -378.9934058 Eh     change       -0.3258700E-01 Eh
 * total energy  :  -379.0246017 Eh     change       -0.3119585E-01 Eh
 * total energy  :  -379.0528994 Eh     change       -0.2829779E-01 Eh
 * total energy  :  -379.0716724 Eh     change       -0.1877300E-01 Eh
 * total energy  :  -379.2097986 Eh     change       -0.1029454E-04 Eh
 * total energy  :  -379.2097840 Eh     change        0.1453987E-04 Eh
 * total energy  :  -379.2098062 Eh     change       -0.2216064E-04 Eh
 * total energy  :  -379.2098111 Eh     change       -0.4948429E-05 Eh
 * total energy  :  -379.2098144 Eh     change       -0.3296412E-05 Eh
 * total energy  :  -379.2098228 Eh     change       -0.8367375E-05 Eh
 * total energy  :  -379.2098296 Eh     change       -0.6817594E-05 Eh
 * total energy  :  -379.2098381 Eh     change       -0.8547310E-05 Eh
 * total energy  :  -379.2098428 Eh     change       -0.4607629E-05 Eh
   *** GEOMETRY OPTIMIZATION CONVERGED AFTER 104 ITERATIONS ***

 final structure:
================
197
 xtb: 6.5.1 (b24c23e)
Cu          29.10082768133053        0.13332706719127       -0.38319162780601
C           25.70779503030885        0.10788506247946       -0.08814191019506
C           26.33413887766126        1.34041344105641        0.01715305254092
C           25.65214477473608        2.58992072432620        0.19951187158482
C           26.60319444587374        3.55443004010196        0.25584498706648
C           27.87684254757714        2.90054351810096        0.12047884539316
N           27.68174284465995        1.55803859736095       -0.03180703910112
C           29.11634132442332        3.54416689756319        0.12663075319540
C           29.12451361162553        5.01278296728437        0.34293289210503
C           28.63301635292686        5.55687909991570        1.52600582217109
C           28.64216404258968        6.93661544807819        1.72763746844245
C           28.10520080728272        7.45520492988636        3.01082189813876
O           28.16353867287764        8.79079799948146        3.11564764335103
O           27.65483889949637        6.76401442747214        3.88840745731594
C           29.14374312330356        7.78436251559245        0.74013805210618
C           29.63243580999663        7.24515877017850       -0.43952855235950
C           29.62524956391622        5.87176642053294       -0.63838879812273
C           30.34918199634268        2.91407184187715       -0.05368148284780
C           31.62497102608400        3.56807233059833        0.02003090954569
C           32.57111322550317        2.62124849684373       -0.20393842470186
N           30.53907263294773        1.58138488060584       -0.30680250243792
C           31.88165252429511        1.38281399688151       -0.40750040069980
C           32.51772640810342        0.15847946041804       -0.67861414857035
C           31.86326934594132       -1.07543805978338       -0.83900789288097
C           32.52668125924944       -2.30491252587587       -1.15326300119325
C           31.57045667487066       -3.26632742382536       -1.21084943786309
C           30.31594990110028       -2.63010244133206       -0.92384904389172
N           30.52608977985334       -1.29336155494639       -0.71078800454039
C           29.07986766785005       -3.27825470810912       -0.88939503845873
C           29.07077883254372       -4.74780578329043       -1.10122332219213
C           29.73842478163668       -5.59582380989932       -0.21488932339309
C           29.72729593234206       -6.97043662694025       -0.40727097366859
C           29.05232416281983       -7.51531897010108       -1.48670626389884
C           28.38282419627498       -6.67821549801429       -2.38065504854061
C           27.67156824514583       -7.29993532019824       -3.52550759197996
O           27.05900588128586       -6.41275744208094       -4.32340177411834
O           27.63042818833739       -8.48488250986964       -3.73757070041903
C           28.39223445188754       -5.29841527429467       -2.18625623242669
C           27.85041634020097       -2.65246300281408       -0.67064178523579
C           26.58271979528428       -3.32565897379548       -0.58323537196879
C           25.64107615682042       -2.37527339654650       -0.36308979615868
C           26.32513899079588       -1.11531174206509       -0.30187522495959
N           27.66385254607976       -1.31244805430386       -0.48818048514973
H           24.62690570073441        0.09949564679355        0.00698705143467
H           24.58134752837318        2.70109918001519        0.26532213183274
H           26.46159442849078        4.61717793790299        0.36874384176287
H           28.25158518252893        4.91257211970968        2.31061519499408
H           27.79688098782361        9.04849062867369        3.97705529972849
H           29.14871321624187        8.85604535907692        0.89783148844565
H           30.02109698017656        7.89824782857979       -1.21272168830622
H           29.99771135335321        5.45758617181642       -1.56869734791752
H           31.77524352690613        4.61416871253768        0.23247396289499
H           33.64260193226353        2.73999837941685       -0.22353022442458
H           33.58784546012780       -2.40796634717775       -1.31428662933260
H           31.69784988612422       -4.31171993544153       -1.44111059362505
H           30.25632597331786       -5.17230296044325        0.63839266771288
H           30.24670894625924       -7.61627474857363        0.29147849912082
H           29.03346691200984       -8.58665311682441       -1.65176038426004
H           26.62022688446797       -6.89673712755495       -5.04177528564072
H           27.88275488768197       -4.64979316718198       -2.88902871849503
H           26.43997710129545       -4.39085149708711       -0.66874262523574
H           24.57699729595109       -2.50288354678957       -0.24140844241850
Cu          61.12125231372995        0.17180492866604       -0.27715599596094
C           64.52621776312017        0.10871897978209       -0.32333196600137
C           63.87622526685300       -1.09249880186113       -0.56264202750361
C           64.53537885963476       -2.33113462838142       -0.86418874318254
C           63.56590110546326       -3.26371489140006       -1.03247740848282
C           62.30458875799794       -2.60487030571158       -0.82399274935699
N           62.52409198200337       -1.28602590640224       -0.54853462992425
C           61.05232086732714       -3.21737418206146       -0.91456911776179
C           61.02255361240786       -4.67624773122553       -1.18620953601116
C           61.61098497092347       -5.57270596621362       -0.29854790132523
C           61.58327948600578       -6.94318459601535       -0.55400220815671
C           62.23066775464425       -7.84693591124014        0.42984758412823
O           62.16136463545945       -9.14326315415345        0.09349626602755
O           62.77535457231341       -7.47629030075583        1.43820333955555
C           60.96284829385894       -7.42744717212605       -1.70553713907333
C           60.37698355141376       -6.53708066080258       -2.59163166170967
C           60.40531315522142       -5.17321888600933       -2.33678377985321
C           59.82645613471206       -2.56370760476574       -0.77268001181928
C           58.54231207507004       -3.20426543796718       -0.81485548808873
C           57.60796128601643       -2.23475996564288       -0.64442634914611
N           59.65412587534933       -1.22174076039928       -0.55873985246358
C           58.31370329038392       -0.99930336028868       -0.48373584521696
C           57.69250032947254        0.24575771636770       -0.28061966491926
C           58.36558407229619        1.45895741785736       -0.05291968842552
C           57.71295133453368        2.71938724251139        0.13735184247425
C           58.68761665347668        3.64378013611029        0.33061575709248
C           59.94350651952214        2.95158248942866        0.26325996924818
N           59.71427374103338        1.62236435927940        0.02494872768941
C           61.19607648611525        3.55513022821420        0.38832021461883
C           61.22726721612629        5.01120482833047        0.67867708689581
C           60.68936103636370        5.50803366680585        1.86781457215487
C           60.71940329682474        6.86811753460135        2.14346227415803
C           61.28229390876130        7.74861585152699        1.23481712687651
C           61.82054582303494        7.26451461552822        0.04146075664526
C           62.41172272462610        8.24026170503402       -0.90821705267760
O           62.89295945091065        7.67767682819670       -2.02665179665456
O           62.46557160134466        9.42808625758907       -0.71640251514958
C           61.79400024689064        5.89865135604758       -0.23337761783108
C           62.42160127698883        2.89867090024960        0.25582245734573
C           63.71149739714193        3.51118577194461        0.42566810486781
C           64.64110950643516        2.54550192632231        0.22153677929844
C           63.92852475559168        1.33265064615329       -0.06271171113243
N           62.58470871224571        1.57470722247571       -0.03425026300831
H           65.61101476779828        0.08867594752378       -0.33998460076003
H           65.60394269281976       -2.45482882063050       -0.94284625605904
H           63.68676713873258       -4.30430565905383       -1.28700350799029
H           62.08471161556924       -5.21595448714848        0.60949898592194
H           62.60577695632735       -9.66420874881539        0.78199846810237
H           60.94212179737508       -8.49243049032885       -1.90245814666573
H           59.89563319740907       -6.90602029887703       -3.49028669342209
H           59.95804428203405       -4.48175176377296       -3.04219515547632
H           58.37939003130823       -4.26214788098308       -0.94284190395403
H           56.53511777517225       -2.33915438870956       -0.61723565759538
H           56.64525262796458        2.86867488513995        0.11888264405586
H           58.57100400917487        4.70356459282756        0.48976548511125
H           60.25808984809564        4.81879487415961        2.58522693657481
H           60.30213350244693        7.23874032663261        3.07283253527185
H           61.31321772157580        8.81388499539756        1.43383518299901
H           63.25723823517998        8.37848842844972       -2.59147979204862
H           62.20164353392769        5.52645317055764       -1.16585402960121
H           63.87675645539881        4.54601475307374        0.67901601051218
H           65.71542043083016        2.63061087846291        0.26583676290009
C           37.70702447737781        0.25248562810994       -1.02252819286066
C           36.48076218817762        0.22120212532123       -0.96155217628974
C           35.13913090721819        0.19121887395004       -0.87989265743920
C           33.91879172914398        0.17105836815340       -0.79174103402587
C           39.04970031522268        0.29158401947079       -1.07528130688928
C           40.27239228784590        0.32780905089635       -1.11492595831221
C           53.72376289103180        0.34890534157010       -0.44403895031229
C           52.49859964628133        0.37740206653968       -0.52573979523691
C           51.15806924499409        0.40353223308833       -0.62217001996623
C           49.93811270150187        0.42326130440149       -0.71821302000803
C           55.06573499569176        0.31422888174419       -0.37070528736671
C           56.28773208081415        0.28058504083007       -0.31599370980150
Cu          45.10931565809340        0.42403099564713       -1.03838329754526
C           41.67679143850030        0.36678558577372       -1.12329689296867
C           42.35528086501286       -0.76561641697928       -1.60902804570203
C           41.70973146570679       -1.90863487861066       -2.18143918113372
C           42.68916149245581       -2.77778837032072       -2.53826838477502
C           43.93944579474189       -2.17767532539687       -2.16737692637077
N           43.70312328031466       -0.94670403460504       -1.61541075919908
C           45.19516136420989       -2.76190390599226       -2.34410438277233
C           45.23974939175408       -4.12154663216372       -2.93860732552142
C           44.62657666183362       -5.19811504853034       -2.30459314815228
C           44.66919203918164       -6.47097523885228       -2.87262680654091
C           43.99487129226604       -7.57830073103216       -2.14952771001788
O           44.08459969508395       -8.76059749683753       -2.77622760604943
O           43.41611867162997       -7.45305653301936       -1.10075990472624
C           45.32831395552007       -6.67446920686442       -4.08486912839802
C           45.94104584841087       -5.60424444400246       -4.71750265271786
C           45.89976800864964       -4.33831201472383       -4.15073673190715
C           46.41593755942868       -2.17522596723650       -2.00295604807668
C           47.69280091247931       -2.82495716972768       -2.08955063741214
C           48.62151020186018       -1.93635278642399       -1.65287703787728
N           46.58590939655056       -0.90941040751926       -1.50991755557673
C           47.91876507433614       -0.74049326271359       -1.29694274788677
C           48.53731810768992        0.43183022078807       -0.82557915439890
C           47.86409243613219        1.61374599659547       -0.46688625645980
C           48.51626601014851        2.82601922674901       -0.07209239364997
C           47.54035943773225        3.73381393965679        0.18490733151582
C           46.28445049221776        3.07467637704191       -0.03580721818565
N           46.51545969972811        1.78729925480629       -0.44211551609512
C           45.02897010444772        3.66063147553006        0.13589099220783
C           44.98908779073980        5.06553082759948        0.61559415761724
C           44.42875705237660        6.06531862469898       -0.18256345301944
C           44.39010384000080        7.38167791656532        0.25572918232748
C           44.90521259543324        7.71526280661719        1.49710316386014
C           45.46436880316678        6.72443161466711        2.30554745775375
C           46.00223535845776        7.12220835411567        3.63077657823946
O           46.51976657230347        6.10109229677087        4.32890382845057
O           45.98630174215138        8.24743209047239        4.06011515145481
C           45.50713522089345        5.40350067329718        1.86369942169292
C           43.80373527734692        3.03277883308814       -0.09849053164084
C           42.51896699560901        3.60818531742294        0.18144717226792
C           41.58627003100236        2.68209480452485       -0.15787005969225
C           42.29435075576464        1.53760431700746       -0.64715323897838
N           43.63385099732923        1.76924971637901       -0.59736792839343
H           40.64384735695406       -2.01742618401058       -2.30236453025475
H           42.57764100735240       -3.73662078991749       -3.01787443523201
H           44.12144863354987       -5.06213159376544       -1.35460453083193
H           43.62087811160698       -9.42716440632704       -2.24376739857491
H           45.35865190389956       -7.66355432642491       -4.52547541975386
H           46.45365293273976       -5.75450580644312       -5.66092378582396
H           46.37056336280092       -3.50293868982060       -4.65692586374010
H           47.85311881354597       -3.83738853098257       -2.42332185349311
H           49.68814867776089       -2.07167264824348       -1.57165755213719
H           49.58461270625986        2.95943846104921       -0.01325470123721
H           47.65789958306689        4.76165122544208        0.48776423350755
H           44.03400745866211        5.80701570500001       -1.15888454971895
H           43.95655048535031        8.14776039784076       -0.37698591932152
H           44.88232225787242        8.73816272626242        1.85558014273469
H           46.84581911739400        6.44177053900499        5.17769987059692
H           45.92997455140071        4.63403464453627        2.49870142483164
H           42.35589017058138        4.58749417265331        0.60150400275880
H           40.51325715818535        2.75731874263157       -0.08330385883054

          :  Hamiltonian                  GFN1-xTB          :
         :: total energy            -379.209842748720 Eh    ::
         :: gradient norm              0.000734552969 Eh/a0 ::
         :: HOMO-LUMO gap              0.001306237048 eV    ::
         :: SCC energy              -384.786167892221 Eh    ::
         :: repulsion energy           5.752343333611 Eh    ::

    * Orbital Energies and Occupations

         #    Occupation            Energy/Eh            Energy/eV
      -------------------------------------------------------------
         1        2.0000           -0.8340062             -22.6945
       ...           ...                  ...                  ...
       327        2.0000           -0.4152946             -11.3007
       328        2.0000           -0.4152510             -11.2996
       329        2.0000           -0.4148315             -11.2881
       330        2.0000           -0.4147327             -11.2855
       331        2.0000           -0.4143666             -11.2755
       332        2.0000           -0.4028953             -10.9633
       333        2.0000           -0.4028554             -10.9623
       334        2.0000           -0.4028508             -10.9621
       335        2.0000           -0.3993197             -10.8660
       336        2.0000           -0.3931826             -10.6990
       337        2.0000           -0.3853820             -10.4868
       338        1.0365           -0.3629417              -9.8761
       339        0.9930           -0.3628485              -9.8736 (HOMO)
       340        0.9705           -0.3628005              -9.8723 (LUMO)
       341        0.0000           -0.3484115              -9.4808
       342                         -0.3399009              -9.2492
       343                         -0.3359625              -9.1420
       344                         -0.3359080              -9.1405
       345                         -0.3356623              -9.1338
       346                         -0.3331056              -9.0643
       347                         -0.3135412              -8.5319
       348                         -0.3123183              -8.4986
       349                         -0.3120813              -8.4922
       350                         -0.3111813              -8.4677
       ...                                ...                  ...
       691                          1.5754756              42.8709
      -------------------------------------------------------------
                  HL-Gap            0.0000480 Eh            0.0013 eV

Wiberg/Mayer (AO) data.
largest (>0.10) Wiberg bond orders for each atom

     #   Z sym  total        # sym  WBO       # sym  WBO       # sym  WBO
 ---------------------------------------------------------------------------
     1  29 Cu   2.191 --     7 N    0.506    43 N    0.506    21 N    0.503
                            28 N    0.502
     2   6 C    3.930 --     3 C    1.362    42 C    1.361    44 H    0.971
     3   6 C    3.916 --     2 C    1.362     7 N    1.229     4 C    1.169
     4   6 C    3.955 --     5 C    1.658     3 C    1.169    45 H    0.975
     5   6 C    3.958 --     4 C    1.658     6 C    1.171    46 H    0.973
     6   6 C    3.914 --     8 C    1.320     7 N    1.239     5 C    1.171
     7   7 N    3.244 --     6 C    1.239     3 C    1.229     1 Cu   0.506
     8   6 C    3.933 --    18 C    1.326     6 C    1.320     9 C    1.026
     9   6 C    3.988 --    10 C    1.409    17 C    1.387     8 C    1.026
                            15 C    0.102
    10   6 C    3.984 --     9 C    1.409    11 C    1.396    47 H    0.968
                            16 C    0.104
    11   6 C    3.988 --    10 C    1.396    15 C    1.391    12 C    1.005
    12   6 C    3.836 --    14 O    1.692    13 O    1.090    11 C    1.005
    13   8 O    2.098 --    12 C    1.090    48 H    0.838    14 O    0.129
    14   8 O    1.961 --    12 C    1.692    13 O    0.129
    15   6 C    3.987 --    16 C    1.448    11 C    1.391    49 H    0.970
                             9 C    0.102
    16   6 C    3.994 --    15 C    1.448    17 C    1.441    50 H    0.972
                            10 C    0.104
    17   6 C    3.987 --    16 C    1.441     9 C    1.387    51 H    0.973
    18   6 C    3.909 --     8 C    1.326    21 N    1.222    19 C    1.179
    19   6 C    3.954 --    20 C    1.642    18 C    1.179    52 H    0.973
    20   6 C    3.956 --    19 C    1.642    22 C    1.187    53 H    0.974
    21   7 N    3.248 --    22 C    1.256    18 C    1.222     1 Cu   0.503
    22   6 C    3.896 --    23 C    1.259    21 N    1.256    20 C    1.187
    23   6 C    3.940 --    24 C    1.259    22 C    1.259   128 C    1.188
    24   6 C    3.896 --    23 C    1.259    28 N    1.256    25 C    1.187
    25   6 C    3.956 --    26 C    1.642    24 C    1.187    54 H    0.974
    26   6 C    3.954 --    25 C    1.642    27 C    1.179    55 H    0.973
    27   6 C    3.909 --    29 C    1.326    28 N    1.222    26 C    1.179
    28   7 N    3.248 --    24 C    1.256    27 C    1.222     1 Cu   0.502
    29   6 C    3.933 --    27 C    1.326    39 C    1.320    30 C    1.026
    30   6 C    3.988 --    38 C    1.406    31 C    1.389    29 C    1.026
                            33 C    0.102
    31   6 C    3.987 --    32 C    1.439    30 C    1.389    56 H    0.973
                            34 C    0.100
    32   6 C    3.994 --    33 C    1.451    31 C    1.439    57 H    0.972
                            38 C    0.104
    33   6 C    3.986 --    32 C    1.451    34 C    1.388    58 H    0.969
                            30 C    0.102
    34   6 C    3.988 --    38 C    1.399    33 C    1.388    35 C    1.005
                            31 C    0.100
    35   6 C    3.836 --    37 O    1.692    36 O    1.089    34 C    1.005
    36   8 O    2.098 --    35 C    1.089    59 H    0.838    37 O    0.129
    37   8 O    1.961 --    35 C    1.692    36 O    0.129
    38   6 C    3.985 --    30 C    1.406    34 C    1.399    60 H    0.969
                            32 C    0.104
    39   6 C    3.914 --    29 C    1.320    43 N    1.239    40 C    1.171
    40   6 C    3.958 --    41 C    1.656    39 C    1.171    61 H    0.973
    41   6 C    3.955 --    40 C    1.656    42 C    1.170    62 H    0.975
    42   6 C    3.916 --     2 C    1.361    43 N    1.229    41 C    1.170
    43   7 N    3.244 --    39 C    1.239    42 C    1.229     1 Cu   0.506
    44   1 H    1.001 --     2 C    0.971
    45   1 H    0.997 --     4 C    0.975
    46   1 H    1.004 --     5 C    0.973
    47   1 H    1.007 --    10 C    0.968
    48   1 H    0.873 --    13 O    0.838
    49   1 H    1.005 --    15 C    0.970
    50   1 H    1.002 --    16 C    0.972
    51   1 H    1.005 --    17 C    0.973
    52   1 H    1.004 --    19 C    0.973
    53   1 H    1.002 --    20 C    0.974
    54   1 H    1.002 --    25 C    0.974
    55   1 H    1.004 --    26 C    0.973
    56   1 H    1.004 --    31 C    0.973
    57   1 H    1.002 --    32 C    0.972
    58   1 H    1.005 --    33 C    0.969
    59   1 H    0.873 --    36 O    0.838
    60   1 H    1.008 --    38 C    0.969
    61   1 H    1.004 --    40 C    0.973
    62   1 H    0.997 --    41 C    0.975
    63  29 Cu   2.187 --    69 N    0.506   105 N    0.505    83 N    0.502
                            90 N    0.502
    64   6 C    3.930 --    65 C    1.362   104 C    1.361   106 H    0.971
    65   6 C    3.916 --    64 C    1.362    69 N    1.229    66 C    1.169
    66   6 C    3.955 --    67 C    1.658    65 C    1.169   107 H    0.975
    67   6 C    3.958 --    66 C    1.658    68 C    1.171   108 H    0.973
    68   6 C    3.914 --    70 C    1.320    69 N    1.239    67 C    1.171
    69   7 N    3.244 --    68 C    1.239    65 C    1.229    63 Cu   0.506
    70   6 C    3.934 --    80 C    1.326    68 C    1.320    71 C    1.028
    71   6 C    3.988 --    72 C    1.408    79 C    1.387    70 C    1.028
                            77 C    0.102
    72   6 C    3.984 --    71 C    1.408    73 C    1.396   109 H    0.968
                            78 C    0.104
    73   6 C    3.988 --    72 C    1.396    77 C    1.391    74 C    1.005
    74   6 C    3.836 --    76 O    1.692    75 O    1.090    73 C    1.005
    75   8 O    2.098 --    74 C    1.090   110 H    0.838    76 O    0.129
    76   8 O    1.961 --    74 C    1.692    75 O    0.129
    77   6 C    3.987 --    78 C    1.448    73 C    1.391   111 H    0.971
                            71 C    0.102
    78   6 C    3.994 --    77 C    1.448    79 C    1.441   112 H    0.972
                            72 C    0.104
    79   6 C    3.987 --    78 C    1.441    71 C    1.387   113 H    0.972
    80   6 C    3.909 --    70 C    1.326    83 N    1.223    81 C    1.179
    81   6 C    3.954 --    82 C    1.642    80 C    1.179   114 H    0.973
    82   6 C    3.956 --    81 C    1.642    84 C    1.187   115 H    0.974
    83   7 N    3.248 --    84 C    1.257    80 C    1.223    63 Cu   0.502
    84   6 C    3.896 --    85 C    1.258    83 N    1.257    82 C    1.187
    85   6 C    3.939 --    86 C    1.259    84 C    1.258   136 C    1.189
    86   6 C    3.896 --    85 C    1.259    90 N    1.257    87 C    1.186
    87   6 C    3.956 --    88 C    1.643    86 C    1.186   116 H    0.974
    88   6 C    3.954 --    87 C    1.643    89 C    1.179   117 H    0.973
    89   6 C    3.909 --    91 C    1.327    90 N    1.222    88 C    1.179
    90   7 N    3.248 --    86 C    1.257    89 C    1.222    63 Cu   0.502
    91   6 C    3.933 --    89 C    1.327   101 C    1.321    92 C    1.025
    92   6 C    3.988 --   100 C    1.407    93 C    1.390    91 C    1.025
                            95 C    0.103
    93   6 C    3.987 --    94 C    1.439    92 C    1.390   118 H    0.973
                            96 C    0.100
    94   6 C    3.994 --    95 C    1.451    93 C    1.439   119 H    0.972
                           100 C    0.104
    95   6 C    3.986 --    94 C    1.451    96 C    1.388   120 H    0.969
                            92 C    0.103
    96   6 C    3.988 --   100 C    1.399    95 C    1.388    97 C    1.005
                            93 C    0.100
    97   6 C    3.836 --    99 O    1.692    98 O    1.089    96 C    1.005
    98   8 O    2.098 --    97 C    1.089   121 H    0.838    99 O    0.129
    99   8 O    1.961 --    97 C    1.692    98 O    0.129
   100   6 C    3.985 --    92 C    1.407    96 C    1.399   122 H    0.969
                            94 C    0.104
   101   6 C    3.914 --    91 C    1.321   105 N    1.239   102 C    1.171
   102   6 C    3.958 --   103 C    1.657   101 C    1.171   123 H    0.973
   103   6 C    3.955 --   102 C    1.657   104 C    1.170   124 H    0.975
   104   6 C    3.916 --    64 C    1.361   105 N    1.230   103 C    1.170
   105   7 N    3.244 --   101 C    1.239   104 C    1.230    63 Cu   0.505
   106   1 H    1.001 --    64 C    0.971
   107   1 H    0.997 --    66 C    0.975
   108   1 H    1.004 --    67 C    0.973
   109   1 H    1.007 --    72 C    0.968
   110   1 H    0.873 --    75 O    0.838
   111   1 H    1.005 --    77 C    0.971
   112   1 H    1.002 --    78 C    0.972
   113   1 H    1.005 --    79 C    0.972
   114   1 H    1.004 --    81 C    0.973
   115   1 H    1.002 --    82 C    0.974
   116   1 H    1.002 --    87 C    0.974
   117   1 H    1.004 --    88 C    0.973
   118   1 H    1.004 --    93 C    0.973
   119   1 H    1.002 --    94 C    0.972
   120   1 H    1.005 --    95 C    0.969
   121   1 H    0.873 --    98 O    0.838
   122   1 H    1.007 --   100 C    0.969
   123   1 H    1.004 --   102 C    0.973
   124   1 H    0.997 --   103 C    0.975
   125   6 C    3.927 --   126 C    2.370   129 C    1.335   128 C    0.191
   126   6 C    3.925 --   125 C    2.370   127 C    1.334   130 C    0.190
   127   6 C    3.935 --   128 C    2.452   126 C    1.334
   128   6 C    3.890 --   127 C    2.452    23 C    1.188   125 C    0.191
   129   6 C    3.933 --   130 C    2.449   125 C    1.335
   130   6 C    3.891 --   129 C    2.449   138 C    1.191   126 C    0.190
   131   6 C    3.925 --   132 C    2.369   135 C    1.334   134 C    0.190
   132   6 C    3.927 --   131 C    2.369   133 C    1.335   136 C    0.191
   133   6 C    3.933 --   134 C    2.449   132 C    1.335
   134   6 C    3.891 --   133 C    2.449   159 C    1.191   131 C    0.190
   135   6 C    3.935 --   136 C    2.452   131 C    1.334
   136   6 C    3.890 --   135 C    2.452    85 C    1.189   132 C    0.191
   137  29 Cu   2.155 --   179 N    0.497   157 N    0.497   143 N    0.496
                           164 N    0.496
   138   6 C    3.928 --   139 C    1.256   178 C    1.256   130 C    1.191
   139   6 C    3.897 --   143 N    1.260   138 C    1.256   140 C    1.186
   140   6 C    3.955 --   141 C    1.642   139 C    1.186   180 H    0.974
   141   6 C    3.955 --   140 C    1.642   142 C    1.179   181 H    0.973
   142   6 C    3.906 --   144 C    1.325   143 N    1.222   141 C    1.179
   143   7 N    3.241 --   139 C    1.260   142 C    1.222   137 Cu   0.496
   144   6 C    3.929 --   142 C    1.325   154 C    1.322   145 C    1.027
   145   6 C    3.988 --   146 C    1.409   153 C    1.387   144 C    1.027
                           151 C    0.102
   146   6 C    3.984 --   145 C    1.409   147 C    1.396   182 H    0.968
                           152 C    0.104
   147   6 C    3.988 --   146 C    1.396   151 C    1.391   148 C    1.005
                           153 C    0.100
   148   6 C    3.836 --   150 O    1.693   149 O    1.090   147 C    1.005
   149   8 O    2.098 --   148 C    1.090   183 H    0.838   150 O    0.129
   150   8 O    1.962 --   148 C    1.693   149 O    0.129
   151   6 C    3.987 --   152 C    1.448   147 C    1.391   184 H    0.970
                           145 C    0.102
   152   6 C    3.994 --   151 C    1.448   153 C    1.442   185 H    0.972
                           146 C    0.104
   153   6 C    3.987 --   152 C    1.442   145 C    1.387   186 H    0.973
                           147 C    0.100
   154   6 C    3.907 --   144 C    1.322   157 N    1.224   155 C    1.180
   155   6 C    3.955 --   156 C    1.641   154 C    1.180   187 H    0.973
   156   6 C    3.955 --   155 C    1.641   158 C    1.187   188 H    0.974
   157   7 N    3.241 --   158 C    1.259   154 C    1.224   137 Cu   0.497
   158   6 C    3.897 --   157 N    1.259   159 C    1.256   156 C    1.187
   159   6 C    3.928 --   158 C    1.256   160 C    1.256   134 C    1.191
   160   6 C    3.897 --   164 N    1.261   159 C    1.256   161 C    1.187
   161   6 C    3.955 --   162 C    1.642   160 C    1.187   189 H    0.974
   162   6 C    3.955 --   161 C    1.642   163 C    1.180   190 H    0.973
   163   6 C    3.907 --   165 C    1.325   164 N    1.222   162 C    1.180
   164   7 N    3.240 --   160 C    1.261   163 C    1.222   137 Cu   0.496
   165   6 C    3.929 --   163 C    1.325   175 C    1.323   166 C    1.025
   166   6 C    3.988 --   174 C    1.407   167 C    1.389   165 C    1.025
                           169 C    0.103
   167   6 C    3.987 --   168 C    1.440   166 C    1.389   191 H    0.973
                           170 C    0.100
   168   6 C    3.994 --   169 C    1.450   167 C    1.440   192 H    0.972
                           174 C    0.104
   169   6 C    3.986 --   168 C    1.450   170 C    1.388   193 H    0.969
                           166 C    0.103
   170   6 C    3.988 --   174 C    1.399   169 C    1.388   171 C    1.005
                           167 C    0.100
   171   6 C    3.836 --   173 O    1.692   172 O    1.090   170 C    1.005
   172   8 O    2.099 --   171 C    1.090   194 H    0.838   173 O    0.129
   173   8 O    1.961 --   171 C    1.692   172 O    0.129
   174   6 C    3.985 --   166 C    1.407   170 C    1.399   195 H    0.969
                           168 C    0.104
   175   6 C    3.907 --   165 C    1.323   179 N    1.224   176 C    1.180
   176   6 C    3.955 --   177 C    1.641   175 C    1.180   196 H    0.973
   177   6 C    3.955 --   176 C    1.641   178 C    1.187   197 H    0.974
   178   6 C    3.897 --   179 N    1.259   138 C    1.256   177 C    1.187
   179   7 N    3.241 --   178 C    1.259   175 C    1.224   137 Cu   0.497
   180   1 H    1.001 --   140 C    0.974
   181   1 H    1.004 --   141 C    0.973
   182   1 H    1.007 --   146 C    0.968
   183   1 H    0.873 --   149 O    0.838
   184   1 H    1.005 --   151 C    0.970
   185   1 H    1.002 --   152 C    0.972
   186   1 H    1.005 --   153 C    0.973
   187   1 H    1.004 --   155 C    0.973
   188   1 H    1.002 --   156 C    0.974
   189   1 H    1.002 --   161 C    0.974
   190   1 H    1.004 --   162 C    0.973
   191   1 H    1.004 --   167 C    0.973
   192   1 H    1.002 --   168 C    0.972
   193   1 H    1.005 --   169 C    0.969
   194   1 H    0.873 --   172 O    0.838
   195   1 H    1.007 --   174 C    0.969
   196   1 H    1.004 --   176 C    0.973
   197   1 H    1.002 --   177 C    0.974
 ---------------------------------------------------------------------------

           -------------------------------------------------
          | TOTAL ENERGY             -379.209842748720 Eh   |
          | GRADIENT NORM               0.000734552969 Eh/α |
          | HOMO-LUMO GAP               0.001306237048 eV   |
           -------------------------------------------------

 * finished run on 2022/07/30 at 07:42:29.231
