   * xtb version 6.5.1 (b24c23e) compiled by 'conda@728c89f4b128' on 2022-07-12
          program call               : xtb Ni_PhCN_C8_2.xyz --gfn 1 --opt -T 48

   ID    Z sym.   atoms
    1   28 Ni     1, 59
    2    6 C      2-6, 8-13, 15-19, 21-26, 28-33, 35-40, 60-64, 66-71, 73-77,
                  79-84, 86-91, 93-98, 117-124
    3    7 N      7, 14, 20, 27, 34, 41, 65, 72, 78, 85, 92, 99
    4    1 H      42-58, 100-116
########################################################################
[WARNING] Please study the warnings concerning your input carefully
-1- prog_main_parseArguments: Unknown option '-T' provided
########################################################################

          :  Hamiltonian                  GFN1-xTB          :
 * total energy  :  -224.9144731 Eh     change       -0.9784458E-09 Eh
 * total energy  :  -225.1151086 Eh     change       -0.2006356E+00 Eh
 * total energy  :  -225.1753054 Eh     change       -0.6019680E-01 Eh
 * total energy  :  -225.1967650 Eh     change       -0.2145951E-01 Eh
 * total energy  :  -225.2068519 Eh     change       -0.1008692E-01 Eh
 * total energy  :  -225.2121849 Eh     change       -0.5333009E-02 Eh
 * total energy  :  -225.2136297 Eh     change       -0.1444852E-02 Eh
 * total energy  :  -225.2169377 Eh     change       -0.3307931E-02 Eh
 * total energy  :  -225.2174897 Eh     change       -0.5519969E-03 Eh
 * total energy  :  -225.2188344 Eh     change       -0.1344690E-02 Eh
 * total energy  :  -225.2213204 Eh     change       -0.3309958E-04 Eh
 * total energy  :  -225.2213482 Eh     change       -0.2786652E-04 Eh
 * total energy  :  -225.2213790 Eh     change       -0.3077327E-04 Eh
 * total energy  :  -225.2213978 Eh     change       -0.1878159E-04 Eh
 * total energy  :  -225.2214202 Eh     change       -0.2245764E-04 Eh
 * total energy  :  -225.2214313 Eh     change       -0.1104928E-04 Eh
 * total energy  :  -225.2214408 Eh     change       -0.9480166E-05 Eh
 * total energy  :  -225.2214484 Eh     change       -0.7587088E-05 Eh
 * total energy  :  -225.2214524 Eh     change       -0.4027169E-05 Eh
   *** GEOMETRY OPTIMIZATION CONVERGED AFTER 34 ITERATIONS ***

 final structure:
================
124
 xtb: 6.5.1 (b24c23e)
Ni          14.34018915735598        0.01027643714056        0.01193515249885
C           10.95058567490499        0.03516038746597        0.15326562016206
C           11.61097586407835        1.24434254848674        0.21898570236665
C           10.94341431948962        2.50690895265237        0.30973077872276
C           11.90747486281675        3.44629580955075        0.45119526828883
C           13.16322142498327        2.75425661567926        0.46030754518803
N           12.97258183938359        1.40753893312342        0.27803190853127
C           14.38854588432386        3.37217016455442        0.67604316508354
C           14.41357293378289        4.82558653944943        0.96202843656974
C           13.76839033267721        5.33754199361524        2.09009477505055
C           13.79644476538277        6.69351425845291        2.36268250649343
C           14.46943837098421        7.56742122071983        1.50366415683018
C           14.49974895003190        8.96356881672146        1.78033559698795
N           14.52588590592278       10.09199115856885        2.00434894622987
C           15.11352512874706        7.06032732181184        0.37113884154485
C           15.08615701242164        5.70260570115527        0.10784888677062
C           15.59323312097156        2.68198310818209        0.63798457227567
C           16.86282697264236        3.28092237053682        0.91878939565607
C           17.80142158327782        2.32930733377903        0.69857468477114
N           15.75110415728149        1.35957982431981        0.29059925202491
C           17.10308825296691        1.15134185744784        0.29342260678455
C           17.74959432292314       -0.01871508553234       -0.11443158617667
C           17.05517598385391       -1.17523085850779       -0.47886909998203
C           17.70149322618861       -2.36225567601430       -0.94009282998214
C           16.73290600959522       -3.29639473884912       -1.09608915512810
C           15.49791437528867       -2.67839983025521       -0.71818308185763
N           15.70363446047868       -1.36065372059297       -0.37785217394022
C           14.28309000935272       -3.34925427404453       -0.66385369295387
C           14.26016712338023       -4.80184376056799       -0.95478804314907
C           13.51714908532258       -5.29774291497641       -2.02852414769941
C           13.49524425285645       -6.65332914172606       -2.30360859305232
C           14.21575267546578       -7.54296172305935       -1.50111476659435
C           14.19415074834262       -8.93897385129112       -1.77926202295067
N           14.17291893705210      -10.06676868095004       -2.00711784402393
C           14.95866664314179       -7.05178790446222       -0.42350872617203
C           14.98075775851135       -5.69440424648134       -0.15792892680830
C           13.08884491124743       -2.71440708406744       -0.34628270902899
C           11.82817312720833       -3.38825965699641       -0.23361804830310
C           10.89361775980769       -2.43585814544505       -0.00689755259967
C           11.58494464355876       -1.18339961293876        0.03084956072843
N           12.93415114436653       -1.36614963279802       -0.14386208181374
H            9.86788323835844        0.04327712723341        0.19941563058974
H            9.87378776984994        2.63666743444802        0.26757931066340
H           11.79211670090617        4.51439686454004        0.53879100981731
H           13.25625187985031        4.66136911095658        2.76536352014967
H           13.29916126297840        7.08302104778513        3.24330047931402
H           15.63327194261029        7.73513301759964       -0.29891422044116
H           15.57775234812475        5.31391835004529       -0.77681290974556
H           17.00745287990313        4.29684191905993        1.24796464479131
H           18.87236473671858        2.40355741805302        0.79596514748093
H           18.76093383106651       -2.45292842598935       -1.11730333696972
H           16.83495939202308       -4.31249568225530       -1.44034707118530
H           12.96657563828062       -4.60952076948640       -2.65988710039155
H           12.92136351975073       -7.03033350568007       -3.14203308430465
H           15.51548318544167       -7.73908149649668        0.20259315026500
H           15.54893725842983       -5.31822792609894        0.68527730556865
H           11.68989058418881       -4.45410271998078       -0.31515272556798
H            9.82967049509221       -2.55088791841297        0.12557318058113
Ni          32.89990931519252       -0.01263609914810        0.01300050835175
C           36.28948732548346       -0.02864924026870        0.15546150656740
C           35.62944172453918       -1.23249580870872        0.28814502601614
C           36.29735833624316       -2.48798077032678        0.44809400253464
C           35.33356150216176       -3.41850329899859        0.64064001884777
C           34.07760853990469       -2.72737180278873        0.61177095912955
N           34.26786103017677       -1.39258109319796        0.35601971964347
C           32.85245892497192       -3.33289940679124        0.86087363814051
C           32.82777351861930       -4.76891350328627        1.22430538474094
C           33.47325063880368       -5.22017471280532        2.37774106774287
C           33.44615708738391       -6.55997283320561        2.72149221854253
C           32.77381615961856       -7.47837447909372        1.90976487586230
C           32.74486684541216       -8.85813078216617        2.25930022007638
N           32.72238298745440       -9.97309481217340        2.54323456742747
C           32.12917778409296       -7.03213674275562        0.75218032362986
C           32.15558228966769       -5.69024700565109        0.41766436912734
C           31.64762151647698       -2.64603962264342        0.78529242575827
C           30.37820641085204       -3.22894365838926        1.09869098030342
C           29.43936444816951       -2.29105350152477        0.82669086599770
N           31.48944457025180       -1.34474910252745        0.36583331906094
C           30.13741267922239       -1.13702982136166        0.35722307574939
C           29.49055946616418        0.00835315338008       -0.11509353147373
C           30.18469149675636        1.14299196844177       -0.54332945501542
C           29.53819700499956        2.30230328184083       -1.07016831897571
C           30.50646302008544        3.22682090648934       -1.27721719788981
C           31.74148239538892        2.63124013868909       -0.86495929316051
N           31.53613806465890        1.33427322992661       -0.45225251629778
C           32.95598772158122        3.30460572246690       -0.84733086738583
C           32.97856074370265        4.73947082426491       -1.21587242026210
C           33.72230329606340        5.17760887734144       -2.31398672529884
C           33.74602805646765        6.51688927108987       -2.65948315974029
C           33.02670004941721        7.44828076013338       -1.90473803857308
C           33.05204285826656        8.82786380635593       -2.25512067605027
N           33.07186361509385        9.94333240445046       -2.53721300147132
C           32.28225644887471        7.01496507992843       -0.80357917381237
C           32.25829879877278        5.67326721611725       -0.46747505177520
C           34.15051126930547        2.68853196959132       -0.49555347987662
C           35.41110798990425        3.36778994497166       -0.42075960921207
C           36.34591171115513        2.42957848541844       -0.14193651091291
C           35.65480296515904        1.18104668036681       -0.03453240348617
N           34.30557938328656        1.35355741478255       -0.21891202843608
H           37.37218833888068       -0.03391422043392        0.20194388442323
H           37.36701749940139       -2.61960326597657        0.41319481685644
H           35.44928940572513       -4.48016948263978        0.78650866343343
H           33.98498954861117       -4.50905662601862        3.01635524474968
H           33.94381805112359       -6.90202708491471        3.62139079478693
H           31.60994616756919       -7.74179219576319        0.11873789731323
H           31.66368344470937       -5.34903428169306       -0.48624447593423
H           30.23392583754191       -4.22532444028484        1.48313776878801
H           28.36844950295102       -2.35999218013842        0.92812198694822
H           28.47884393970166        2.38259461066284       -1.25283749258391
H           30.40426529801066        4.22217216465659       -1.67748972472785
H           34.27225416889583        4.45663680676268       -2.90823400334267
H           34.32082876917080        6.84904690525666       -3.51606885029919
H           31.72604736060919        7.73460009439873       -0.21435275309675
H           31.68916370772657        5.34232071148531        0.39389425860104
H           35.54928314184494        4.42746359452103       -0.56140986846585
H           37.40988855343230        2.55190699461663       -0.01645727655896
C           19.15390158888892       -0.03012976444465       -0.15590757854887
C           20.37760546411531       -0.02768271282166       -0.18087808946698
C           21.72075706956684       -0.02309000799245       -0.20050613234555
C           22.95081998419206       -0.01250618139731       -0.20852192166499
C           24.28936689389510       -0.00192150382579       -0.20885112053852
C           25.51940614374652        0.00914504072753       -0.20136315614946
C           26.86257926030834        0.01408828045578       -0.18203934177504
C           28.08628149351719        0.01717604744286       -0.15757735233271

          :  Hamiltonian                  GFN1-xTB          :
         :: total energy            -225.221452383209 Eh    ::
         :: gradient norm              0.000828162904 Eh/a0 ::
         :: HOMO-LUMO gap              1.263393709658 eV    ::
         :: SCC energy              -229.101274268505 Eh    ::
         :: repulsion energy           3.991892374174 Eh    ::

    * Orbital Energies and Occupations

         #    Occupation            Energy/Eh            Energy/eV
      -------------------------------------------------------------
         1        2.0000           -0.7926593             -21.5694
       ...           ...                  ...                  ...
       197        2.0000           -0.4204118             -11.4400
       198        2.0000           -0.4100799             -11.1588
       199        2.0000           -0.4100768             -11.1588
       200        2.0000           -0.4097411             -11.1496
       201        2.0000           -0.4097381             -11.1495
       202        2.0000           -0.4088435             -11.1252
       203        2.0000           -0.4088405             -11.1251
       204        2.0000           -0.4077759             -11.0961
       205        2.0000           -0.4077728             -11.0961
       206        2.0000           -0.4076942             -11.0939
       207        2.0000           -0.4076912             -11.0938
       208        2.0000           -0.4032945             -10.9742
       209        2.0000           -0.3968007             -10.7975 (HOMO)
       210                         -0.3503718              -9.5341 (LUMO)
       211                         -0.3427743              -9.3274
       212                         -0.3426784              -9.3248
       213                         -0.3426756              -9.3247
       214                         -0.3398652              -9.2482
       215                         -0.3398500              -9.2478
       216                         -0.3168725              -8.6225
       217                         -0.3148396              -8.5672
       218                         -0.3072037              -8.3594
       219                         -0.3047732              -8.2933
       220                         -0.3047717              -8.2933
       ...                                ...                  ...
       438                          1.5968935              43.4537
      -------------------------------------------------------------
                  HL-Gap            0.0464289 Eh            1.2634 eV

Wiberg/Mayer (AO) data.
largest (>0.10) Wiberg bond orders for each atom

     #   Z sym  total        # sym  WBO       # sym  WBO       # sym  WBO
 ---------------------------------------------------------------------------
     1  28 Ni   3.012 --     7 N    0.664    41 N    0.664    20 N    0.661
                            27 N    0.661
     2   6 C    3.935 --    40 C    1.364     3 C    1.364    42 H    0.970
     3   6 C    3.922 --     2 C    1.364     7 N    1.213     4 C    1.175
     4   6 C    3.960 --     5 C    1.649     3 C    1.175    43 H    0.975
     5   6 C    3.963 --     4 C    1.649     6 C    1.176    44 H    0.973
     6   6 C    3.920 --     8 C    1.322     7 N    1.222     5 C    1.176
     7   7 N    3.402 --     6 C    1.222     3 C    1.213     1 Ni   0.664
     8   6 C    3.939 --    17 C    1.326     6 C    1.322     9 C    1.030
     9   6 C    3.963 --    10 C    1.386    16 C    1.385     8 C    1.030
    10   6 C    3.988 --    11 C    1.463     9 C    1.386    45 H    0.971
                            15 C    0.102
    11   6 C    3.993 --    10 C    1.463    12 C    1.364    46 H    0.972
                            16 C    0.102
    12   6 C    3.985 --    11 C    1.364    15 C    1.364    13 C    1.098
    13   6 C    3.958 --    14 N    2.820    12 C    1.098
    14   7 N    2.973 --    13 C    2.820
    15   6 C    3.993 --    16 C    1.464    12 C    1.364    47 H    0.972
                            10 C    0.102
    16   6 C    3.988 --    15 C    1.464     9 C    1.385    48 H    0.971
                            11 C    0.102
    17   6 C    3.914 --     8 C    1.326    20 N    1.207    18 C    1.184
    18   6 C    3.959 --    19 C    1.636    17 C    1.184    49 H    0.973
    19   6 C    3.961 --    18 C    1.636    21 C    1.191    50 H    0.973
    20   7 N    3.406 --    21 C    1.238    17 C    1.207     1 Ni   0.661
    21   6 C    3.902 --    22 C    1.263    20 N    1.238    19 C    1.191
    22   6 C    3.945 --    23 C    1.263    21 C    1.263   117 C    1.184
    23   6 C    3.902 --    22 C    1.263    27 N    1.238    24 C    1.191
    24   6 C    3.961 --    25 C    1.636    23 C    1.191    51 H    0.973
    25   6 C    3.959 --    24 C    1.636    26 C    1.183    52 H    0.973
    26   6 C    3.914 --    28 C    1.327    27 N    1.207    25 C    1.183
    27   7 N    3.406 --    23 C    1.238    26 C    1.207     1 Ni   0.661
    28   6 C    3.939 --    26 C    1.327    37 C    1.321    29 C    1.029
    29   6 C    3.963 --    30 C    1.386    36 C    1.386    28 C    1.029
    30   6 C    3.988 --    31 C    1.463    29 C    1.386    53 H    0.971
                            35 C    0.102
    31   6 C    3.993 --    30 C    1.463    32 C    1.364    54 H    0.972
                            36 C    0.102
    32   6 C    3.985 --    35 C    1.364    31 C    1.364    33 C    1.098
    33   6 C    3.958 --    34 N    2.820    32 C    1.098
    34   7 N    2.973 --    33 C    2.820
    35   6 C    3.993 --    36 C    1.463    32 C    1.364    55 H    0.972
                            30 C    0.102
    36   6 C    3.988 --    35 C    1.463    29 C    1.386    56 H    0.971
                            31 C    0.102
    37   6 C    3.920 --    28 C    1.321    41 N    1.222    38 C    1.176
    38   6 C    3.963 --    39 C    1.650    37 C    1.176    57 H    0.973
    39   6 C    3.960 --    38 C    1.650    40 C    1.175    58 H    0.975
    40   6 C    3.922 --     2 C    1.364    41 N    1.212    39 C    1.175
    41   7 N    3.401 --    37 C    1.222    40 C    1.212     1 Ni   0.664
    42   1 H    1.000 --     2 C    0.970
    43   1 H    0.997 --     4 C    0.975
    44   1 H    1.004 --     5 C    0.973
    45   1 H    1.003 --    10 C    0.971
    46   1 H    1.000 --    11 C    0.972
    47   1 H    1.000 --    15 C    0.972
    48   1 H    1.003 --    16 C    0.971
    49   1 H    1.004 --    18 C    0.973
    50   1 H    1.001 --    19 C    0.973
    51   1 H    1.001 --    24 C    0.973
    52   1 H    1.004 --    25 C    0.973
    53   1 H    1.003 --    30 C    0.971
    54   1 H    1.000 --    31 C    0.972
    55   1 H    1.000 --    35 C    0.972
    56   1 H    1.003 --    36 C    0.971
    57   1 H    1.004 --    38 C    0.973
    58   1 H    0.997 --    39 C    0.975
    59  28 Ni   3.012 --    65 N    0.664    99 N    0.663    78 N    0.661
                            85 N    0.661
    60   6 C    3.935 --    98 C    1.364    61 C    1.364   100 H    0.970
    61   6 C    3.922 --    60 C    1.364    65 N    1.213    62 C    1.175
    62   6 C    3.960 --    63 C    1.649    61 C    1.175   101 H    0.975
    63   6 C    3.963 --    62 C    1.649    64 C    1.176   102 H    0.973
    64   6 C    3.920 --    66 C    1.322    65 N    1.222    63 C    1.176
    65   7 N    3.402 --    64 C    1.222    61 C    1.213    59 Ni   0.664
    66   6 C    3.939 --    75 C    1.326    64 C    1.322    67 C    1.030
    67   6 C    3.963 --    68 C    1.386    74 C    1.385    66 C    1.030
    68   6 C    3.988 --    69 C    1.463    67 C    1.386   103 H    0.971
                            73 C    0.102
    69   6 C    3.993 --    68 C    1.463    70 C    1.365   104 H    0.972
                            74 C    0.102
    70   6 C    3.985 --    69 C    1.365    73 C    1.364    71 C    1.098
    71   6 C    3.958 --    72 N    2.820    70 C    1.098
    72   7 N    2.973 --    71 C    2.820
    73   6 C    3.993 --    74 C    1.464    70 C    1.364   105 H    0.972
                            68 C    0.102
    74   6 C    3.988 --    73 C    1.464    67 C    1.385   106 H    0.971
                            69 C    0.102
    75   6 C    3.914 --    66 C    1.326    78 N    1.207    76 C    1.184
    76   6 C    3.959 --    77 C    1.636    75 C    1.184   107 H    0.973
    77   6 C    3.961 --    76 C    1.636    79 C    1.191   108 H    0.973
    78   7 N    3.406 --    79 C    1.237    75 C    1.207    59 Ni   0.661
    79   6 C    3.902 --    80 C    1.263    78 N    1.237    77 C    1.191
    80   6 C    3.945 --    81 C    1.263    79 C    1.263   124 C    1.184
    81   6 C    3.902 --    80 C    1.263    85 N    1.238    82 C    1.191
    82   6 C    3.961 --    83 C    1.636    81 C    1.191   109 H    0.973
    83   6 C    3.959 --    82 C    1.636    84 C    1.183   110 H    0.973
    84   6 C    3.914 --    86 C    1.327    85 N    1.207    83 C    1.183
    85   7 N    3.406 --    81 C    1.238    84 C    1.207    59 Ni   0.661
    86   6 C    3.939 --    84 C    1.327    95 C    1.321    87 C    1.029
    87   6 C    3.963 --    94 C    1.386    88 C    1.386    86 C    1.029
    88   6 C    3.988 --    89 C    1.463    87 C    1.386   111 H    0.971
                            93 C    0.102
    89   6 C    3.993 --    88 C    1.463    90 C    1.364   112 H    0.972
                            94 C    0.102
    90   6 C    3.985 --    93 C    1.364    89 C    1.364    91 C    1.098
    91   6 C    3.958 --    92 N    2.820    90 C    1.098
    92   7 N    2.973 --    91 C    2.820
    93   6 C    3.993 --    94 C    1.463    90 C    1.364   113 H    0.972
                            88 C    0.102
    94   6 C    3.988 --    93 C    1.463    87 C    1.386   114 H    0.971
                            89 C    0.102
    95   6 C    3.920 --    86 C    1.321    99 N    1.222    96 C    1.176
    96   6 C    3.963 --    97 C    1.650    95 C    1.176   115 H    0.973
    97   6 C    3.960 --    96 C    1.650    98 C    1.175   116 H    0.975
    98   6 C    3.922 --    60 C    1.364    99 N    1.212    97 C    1.175
    99   7 N    3.401 --    95 C    1.222    98 C    1.212    59 Ni   0.663
   100   1 H    1.000 --    60 C    0.970
   101   1 H    0.997 --    62 C    0.975
   102   1 H    1.004 --    63 C    0.973
   103   1 H    1.003 --    68 C    0.971
   104   1 H    1.000 --    69 C    0.972
   105   1 H    1.000 --    73 C    0.972
   106   1 H    1.003 --    74 C    0.971
   107   1 H    1.004 --    76 C    0.973
   108   1 H    1.001 --    77 C    0.973
   109   1 H    1.001 --    82 C    0.973
   110   1 H    1.004 --    83 C    0.973
   111   1 H    1.003 --    88 C    0.971
   112   1 H    1.000 --    89 C    0.972
   113   1 H    1.000 --    93 C    0.972
   114   1 H    1.003 --    94 C    0.971
   115   1 H    1.004 --    96 C    0.973
   116   1 H    0.997 --    97 C    0.975
   117   6 C    3.878 --   118 C    2.447    22 C    1.184   120 C    0.187
   118   6 C    3.938 --   117 C    2.447   119 C    1.339
   119   6 C    3.894 --   120 C    2.343   118 C    1.339   122 C    0.183
   120   6 C    3.927 --   119 C    2.343   121 C    1.365   117 C    0.187
   121   6 C    3.927 --   122 C    2.343   120 C    1.365   124 C    0.187
   122   6 C    3.894 --   121 C    2.343   123 C    1.339   119 C    0.183
   123   6 C    3.938 --   124 C    2.447   122 C    1.339
   124   6 C    3.878 --   123 C    2.447    80 C    1.184   121 C    0.187
 ---------------------------------------------------------------------------

           -------------------------------------------------
          | TOTAL ENERGY             -225.221452383209 Eh   |
          | GRADIENT NORM               0.000828162904 Eh/α |
          | HOMO-LUMO GAP               1.263393709658 eV   |
           -------------------------------------------------

 * finished run on 2022/07/30 at 11:44:48.925
