   * xtb version 6.5.1 (b24c23e) compiled by 'conda@728c89f4b128' on 2022-07-12
          program call               : xtb Co_PhOH_C6_3.xyz --gfn 1 --opt -T 48

   ID    Z sym.   atoms
    1   27 Co     1, 59, 129
    2    6 C      2-6, 8-12, 14-18, 20-25, 27-31, 33-38, 60-64, 66-70, 72-76,
                  78-83, 85-89, 91-96, 117-128, 130-134, 136-140, 142-146,
                  148-153, 155-159, 161-166
    3    7 N      7, 19, 26, 39, 65, 77, 84, 97, 135, 147, 154, 167
    4    8 O      13, 32, 71, 90, 141, 160
    5    1 H      40-58, 98-116, 168-185

          :  Hamiltonian                  GFN1-xTB          :
 * total energy  :  -334.3913061 Eh     change        0.5917400E-10 Eh
 * total energy  :  -334.7737503 Eh     change       -0.3824442E+00 Eh
 * total energy  :  -334.9072420 Eh     change       -0.1334917E+00 Eh
 * total energy  :  -335.0084614 Eh     change       -0.1012194E+00 Eh
 * total energy  :  -335.0831816 Eh     change       -0.7472023E-01 Eh
 * total energy  :  -335.1290883 Eh     change       -0.4590670E-01 Eh
 * total energy  :  -335.1571908 Eh     change       -0.2810251E-01 Eh
 * total energy  :  -335.1769474 Eh     change       -0.1975660E-01 Eh
 * total energy  :  -335.1877172 Eh     change       -0.1076983E-01 Eh
 * total energy  :  -335.1980452 Eh     change       -0.1032797E-01 Eh
 * total energy  :  -335.2510527 Eh     change       -0.2152969E-04 Eh
 * total energy  :  -335.2510707 Eh     change       -0.1801410E-04 Eh
 * total energy  :  -335.2511021 Eh     change       -0.3139432E-04 Eh
 * total energy  :  -335.2511184 Eh     change       -0.1628845E-04 Eh
 * total energy  :  -335.2511547 Eh     change       -0.3628548E-04 Eh
 * total energy  :  -335.2511714 Eh     change       -0.1669570E-04 Eh
 * total energy  :  -335.2511791 Eh     change       -0.7741143E-05 Eh
 * total energy  :  -335.2511861 Eh     change       -0.7021077E-05 Eh
 * total energy  :  -335.2511893 Eh     change       -0.3161509E-05 Eh
   *** GEOMETRY OPTIMIZATION CONVERGED AFTER 68 ITERATIONS ***

 final structure:
================
185
 xtb: 6.5.1 (b24c23e)
Co          28.63765687573614       -0.01759822160098       -0.10091419209031
C           25.27199831796341       -0.06975092383621       -0.35882792258742
C           25.95490214313588       -1.26163444570418       -0.46434239467818
C           25.31014569204151       -2.52568231779189       -0.65116855747645
C           26.25979572031366       -3.47423237199917       -0.47833594739670
C           27.48950480033894       -2.78802974681264       -0.20924374240105
N           27.29840560938985       -1.42978895312788       -0.23775268626899
C           28.66989599067302       -3.42238356105814        0.15348234289137
C           28.68428333078937       -4.89922061791062        0.29322493865462
C           28.47220274343974       -5.71909887669195       -0.81467772129777
C           28.49344993770227       -7.09967599988637       -0.68725828832384
C           28.72395737737914       -7.67514041663005        0.55993888429485
O           28.75135896890206       -9.02242523087481        0.72975429829265
C           28.93570216424330       -6.86621953612303        1.67487611935261
C           28.91843785357127       -5.48946078708014        1.53695870947326
C           29.84596359418628       -2.71958155403617        0.36369136486501
C           31.10270016155735       -3.34434289923192        0.64987046490401
C           32.04951786869506       -2.38094057879723        0.55522425653462
N           30.01992495594397       -1.37117537785616        0.14335883044654
C           31.36936637652861       -1.17001542590027        0.22106414620490
C           32.03173099437547        0.02424433450486       -0.06998225852502
C           31.34173580265124        1.21288561397291       -0.31240229151251
C           31.99212088540707        2.45480601184743       -0.58650853893864
C           31.02866275889779        3.40700188545340       -0.57804127093312
C           29.79178216601193        2.74143896433475       -0.30037672774507
N           29.99025930135626        1.38426254860354       -0.19226141525450
C           28.58545122247509        3.39835577684801       -0.10654944519746
C           28.57116997589088        4.87932150969101       -0.09388102540340
C           29.32318160754496        5.58694559694930        0.84741960217104
C           29.31637551141709        6.97022368564535        0.86503760042042
C           28.55843015321978        7.66982807685274       -0.07239071065720
O           28.57842970243021        9.02691226146802       -0.03024093744844
C           27.80813936492112        6.97808403436850       -1.02048590827429
C           27.81479849641847        5.59189803142259       -1.02509181223101
C           27.39240170560610        2.70510679499411        0.04400386408218
C           26.11688685593291        3.33291328680761        0.23022974654755
C           25.18208329668394        2.35976649394459        0.12166295818056
C           25.88854591438246        1.13547213318144       -0.10050560108739
N           27.24395163547940        1.34753574348098       -0.09302167462755
H           24.19226820410233       -0.08607353461286       -0.44983591669630
H           24.25914005108303       -2.65036147507569       -0.85837887135209
H           26.14717052716316       -4.54572848834345       -0.51123549812228
H           28.30697010830317       -5.27250548234869       -1.78882879173880
H           28.33425695849032       -7.73326643733474       -1.55324547170135
H           28.59251576123346       -9.48569070650272       -0.10358282960234
H           29.11163265403257       -7.32755150436454        2.63875757872642
H           29.07383765970989       -4.85950734272967        2.40562824813777
H           31.23514497102392       -4.39197744228434        0.86541456424175
H           33.11605370898261       -2.46748242201945        0.68674967646391
H           33.05170821514387        2.56732748682424       -0.75070931199701
H           31.13365199402522        4.46588426727354       -0.74965737391204
H           29.90490644473094        5.04267502466509        1.58294973077553
H           29.89244903794001        7.52114727568436        1.59820051224049
H           28.02018601350312        9.40918015807141       -0.72061212475539
H           27.22446768989105        7.52657109451236       -1.75208866399871
H           27.24220969226312        5.05555547049784       -1.77362395110908
H           25.96928070676863        4.38473950646346        0.41437451944549
H           24.10880008174669        2.44220065442004        0.18780825428097
Co          60.52951897689629       -0.01461055290147       -0.05564561180694
C           63.88964883224455        0.01782608831013       -0.30892847730096
C           63.19771068930969        1.16930977094141       -0.61782099547691
C           63.82537739645866        2.38834577265124       -1.02830340571623
C           62.86818655740990        3.34538760474042       -1.00179963031076
C           61.65222984803123        2.70675173949834       -0.59078451888869
N           61.85612875506563        1.36399481659392       -0.40224069259712
C           60.48296768159310        3.38580596425382       -0.27039898120115
C           60.46236270194734        4.86657818799174       -0.35059590375494
C           60.60650607889902        5.51046989298333       -1.57918617358807
C           60.57715581892182        6.89430788070258       -1.65988457819610
C           60.40843083427462        7.65068163201898       -0.50252000708443
O           60.37551676850146        9.00774338481344       -0.53576138867375
C           60.26696961920862        7.01847073837680        0.73148916495201
C           60.29055640587974        5.63670572519804        0.80149582494547
C           59.32688110223669        2.71831853515437        0.10310065127631
C           58.08128467166576        3.36895279215111        0.38043453904846
C           57.13811087895055        2.39872593271217        0.44467541168887
N           59.15175632908289        1.35272562078363        0.05481993595576
C           57.80941595411421        1.15948579679933        0.21195397623527
C           57.14283202882034       -0.05703216075347        0.03375105930872
C           57.83520847926054       -1.26088049551106       -0.12516655586923
C           57.19191680655565       -2.52461346896321       -0.29585303428507
C           58.15833515624637       -3.46893382704625       -0.19029559343471
C           59.38925674436988       -2.77662229959171        0.04535793848548
N           59.18481146187625       -1.41617811410501        0.02056064921287
C           60.59174972623963       -3.40029744491804        0.34670013924740
C           60.61134253045937       -4.86841777615932        0.53090581586352
C           59.80562012171897       -5.47168535494391        1.50061187925333
C           59.81717250102520       -6.84328507611113        1.67890726238269
C           60.63459500025272       -7.63801885324935        0.87685864186349
O           60.61778521540024       -8.98076068536349        1.07501709283103
C           61.43924068862842       -7.05168109158287       -0.09758238816976
C           61.42709432046139       -5.67566653899657       -0.26335510032411
C           61.77730849189445       -2.68340746692438        0.45442302759023
C           63.04958710763746       -3.26719671286784        0.76437421957993
C           63.98280570781670       -2.30964947175455        0.54896515124203
C           63.27779602010849       -1.13565423748670        0.13429908704269
N           61.92371461346996       -1.35623387627237        0.14008556548840
H           64.96987057990675        0.02748654618683       -0.39502124812657
H           64.87094498447802        2.48444349147810       -1.27449366142150
H           62.96849464283465        4.39641815349541       -1.21909465798300
H           60.72390178363310        4.92234282422340       -2.48252987072068
H           60.68212810360491        7.39040984093752       -2.61880275778309
H           60.48182505280653        9.34118228166125       -1.43679645604420
H           60.13980489140236        7.61941011982155        1.62341993163057
H           60.19028702163970        5.14459216932725        1.76238775496718
H           57.95134683752431        4.43403438749381        0.48184785659047
H           56.07873696677889        2.49808311394621        0.61832409404533
H           56.13471730795249       -2.65617087214074       -0.46126183219638
H           58.05796356916057       -4.53922048983819       -0.26861540912797
H           59.17860959812038       -4.85290155766454        2.13275191308692
H           59.19940218812706       -7.31225543669147        2.43476500053932
H           61.21927894722711       -9.43461913534768        0.46950009951985
H           62.06928864082847       -7.67431562365143       -0.72374801844427
H           62.04168619789634       -5.22333688775645       -1.03373983782516
H           63.19718737807867       -4.28139298484703        1.09853503789052
H           65.05399917760441       -2.37321198148113        0.65655505065520
C           37.23265767771038        0.04074672760697       -0.09417789043717
C           36.00418409775057        0.04042969825067       -0.09762297457005
C           34.65968667775636        0.03603329946809       -0.09498865347018
C           33.43600393270192        0.03457955472962       -0.08694424395202
C           38.57674673625532        0.03944812905807       -0.09050033700954
C           39.80088508719154        0.03838204542854       -0.08318214908895
C           53.17504092080790       -0.07212832213640        0.01816443167333
C           51.94528363926194       -0.06860311475980        0.01183494486152
C           50.60371094822535       -0.05992731521994       -0.00282610992489
C           49.37853069783983       -0.04525443396367       -0.01433045573524
C           54.51696799233105       -0.07305926168831        0.02549704931896
C           55.74198884335333       -0.06942594910765        0.03097690301554
Co          44.59088620396199       -0.01034019076743       -0.03430721734754
C           41.20313011588990        0.03300454635743       -0.08048533277872
C           41.88772236924603        0.89050182696760        0.78636621882724
C           41.24700166018574        1.75466441304147        1.72492259950065
C           42.20801473392766        2.57836361498778        2.21278520214371
C           43.42945726634333        2.22009877114135        1.55880398302341
N           43.23067125839605        1.13714693417034        0.73604062157566
C           44.60787978899160        2.95400695114480        1.62898717628387
C           44.61751895356546        4.23169800361492        2.37320560930766
C           45.51873699509884        4.43589291786756        3.42220693637944
C           45.52871220544036        5.62605083204823        4.12649476414496
C           44.63684399697010        6.64089860256457        3.78252250098765
O           44.67750558799386        7.79731970129652        4.49092876655256
C           43.73586463588654        6.45380575140715        2.73619825712817
C           43.72636788847045        5.25411267607414        2.04261254668582
C           45.77818289899990        2.51437030284247        1.02433153064292
C           47.00917801556645        3.24481369275693        1.01046870245287
C           47.96132424803375        2.39726683955624        0.54782964990771
N           45.96183215007571        1.26011338281126        0.48891938674750
C           47.30565461912939        1.16018681014064        0.26748157862888
C           47.97924216430707       -0.02957268958588       -0.03112565063574
C           47.28612754000473       -1.20269958408151       -0.35093266000231
C           47.91797143088450       -2.45347172033460       -0.62387281029249
C           46.95880802136698       -3.27125908401368       -1.12519089291344
C           45.74732445571190       -2.51043133213807       -1.16477791156307
N           45.94901813882574       -1.26361257832551       -0.62113311507568
C           44.57895729403597       -2.91725482679053       -1.79678257684873
C           44.57678542810529       -4.18627728526176       -2.55559236855000
C           43.66217613493931       -5.19628293894117       -2.25211327394398
C           43.66131972338593       -6.38738349810893       -2.96042118291200
C           44.57624002543394       -6.57838027753453       -3.99377407687317
O           44.60694499877037       -7.72638822514685       -4.71638650053278
C           45.49291994096885       -5.57657833530258       -4.30951156969732
C           45.49272331897161       -4.39501194822028       -3.59083527808210
C           43.41315948128432       -2.16405390377558       -1.73062725378812
C           42.19019270284592       -2.50169083757655       -2.39351035735259
C           41.23569015070286       -1.67639901128676       -1.89677263927353
C           41.88256915818306       -0.82805540885886       -0.94772618685233
N           43.22476823973903       -1.08092860527041       -0.90419112401320
H           40.19601618674896        1.72804465196653        1.96389398572755
H           42.10759814093663        3.35940987932760        2.94875540188066
H           46.20178477297425        3.64128187931575        3.70074613432262
H           46.21922218085544        5.78277526813851        4.94586814573826
H           44.01574582765650        8.42831298310228        4.17705364893085
H           43.04751650580160        7.24814045977088        2.46818660936269
H           43.03478004339839        5.11625945103021        1.21893288114762
H           47.12156837844216        4.27122522795991        1.31956523286006
H           49.01572608890012        2.57632996891828        0.41179412270204
H           48.96272512702082       -2.66151674376127       -0.45798349480348
H           47.05393958406311       -4.29750306767331       -1.44072341470210
H           42.95946140067312       -5.05588690174040       -1.43830741409365
H           42.95392130654245       -7.17189443764784       -2.71389524859301
H           43.93162487862456       -8.35040350854278       -4.41792832032278
H           46.19532227786262       -5.73690597140311       -5.11811036001381
H           46.19633869601746       -3.61059896435216       -3.84633645931705
H           42.08410338484128       -3.27313436830361       -3.13871522652429
H           40.18522422049147       -1.63840452796730       -2.13634011296276

          :  Hamiltonian                  GFN1-xTB          :
         :: total energy            -335.251189287193 Eh    ::
         :: gradient norm              0.000570248708 Eh/a0 ::
         :: HOMO-LUMO gap              0.007128618577 eV    ::
         :: SCC energy              -340.545183370978 Eh    ::
         :: repulsion energy           5.458461237252 Eh    ::

    * Orbital Energies and Occupations

         #    Occupation            Energy/Eh            Energy/eV
      -------------------------------------------------------------
         1        2.0000           -0.8084677             -21.9995
       ...           ...                  ...                  ...
       294        2.0000           -0.3940404             -10.7224
       295        2.0000           -0.3938783             -10.7180
       296        2.0000           -0.3931056             -10.6969
       297        1.9999           -0.3908772             -10.6363
       298        1.9998           -0.3906815             -10.6310
       299        1.9998           -0.3905194             -10.6266
       300        1.9998           -0.3904621             -10.6250
       301        1.9998           -0.3903790             -10.6228
       302        1.9997           -0.3903065             -10.6208
       303        1.9946           -0.3874142             -10.5421
       304        1.7785           -0.3837372             -10.4420
       305        1.1422           -0.3819203             -10.3926
       306        1.1056           -0.3818429             -10.3905 (HOMO)
       307        0.9804           -0.3815809             -10.3833 (LUMO)
       308                         -0.3426175              -9.3231
       309                         -0.3325407              -9.0489
       310                         -0.3289563              -8.9514
       311                         -0.3285656              -8.9407
       312                         -0.3266410              -8.8884
       313                         -0.3250336              -8.8446
       314                         -0.3075732              -8.3695
       315                         -0.2963022              -8.0628
       316                         -0.2945861              -8.0161
       317                         -0.2923927              -7.9564
       ...                                ...                  ...
       643                          1.5764346              42.8970
      -------------------------------------------------------------
                  HL-Gap            0.0002620 Eh            0.0071 eV

Wiberg/Mayer (AO) data.
largest (>0.10) Wiberg bond orders for each atom

     #   Z sym  total        # sym  WBO       # sym  WBO       # sym  WBO
 ---------------------------------------------------------------------------
     1  27 Co   3.024 --    39 N    0.638     7 N    0.638    19 N    0.635
                            26 N    0.634
     2   6 C    3.931 --     3 C    1.368    38 C    1.363    40 H    0.970
     3   6 C    3.925 --     2 C    1.368     7 N    1.200     4 C    1.174
     4   6 C    3.960 --     5 C    1.649     3 C    1.174    41 H    0.975
     5   6 C    3.963 --     4 C    1.649     6 C    1.177    42 H    0.973
     6   6 C    3.919 --     8 C    1.320     7 N    1.213     5 C    1.177
     7   7 N    3.349 --     6 C    1.213     3 C    1.200     1 Co   0.638
     8   6 C    3.936 --    16 C    1.336     6 C    1.320     9 C    1.022
     9   6 C    3.988 --    10 C    1.396    15 C    1.386     8 C    1.022
    10   6 C    3.988 --    11 C    1.451     9 C    1.396    43 H    0.973
                            14 C    0.106
    11   6 C    3.988 --    10 C    1.451    12 C    1.373    44 H    0.970
                            15 C    0.103
    12   6 C    3.902 --    11 C    1.373    14 C    1.365    13 O    1.040
    13   8 O    2.043 --    12 C    1.040    45 H    0.865
    14   6 C    3.990 --    15 C    1.466    12 C    1.365    46 H    0.971
                            10 C    0.106
    15   6 C    3.988 --    14 C    1.466     9 C    1.386    47 H    0.973
                            11 C    0.103
    16   6 C    3.916 --     8 C    1.336    19 N    1.192    17 C    1.180
    17   6 C    3.959 --    18 C    1.639    16 C    1.180    48 H    0.973
    18   6 C    3.962 --    17 C    1.639    20 C    1.189    49 H    0.973
    19   7 N    3.351 --    20 C    1.231    16 C    1.192     1 Co   0.635
    20   6 C    3.905 --    21 C    1.261    19 N    1.231    18 C    1.189
    21   6 C    3.938 --    22 C    1.264    20 C    1.261   120 C    1.184
    22   6 C    3.905 --    21 C    1.264    26 N    1.226    23 C    1.190
    23   6 C    3.961 --    24 C    1.636    22 C    1.190    50 H    0.973
    24   6 C    3.959 --    23 C    1.636    25 C    1.183    51 H    0.973
    25   6 C    3.916 --    27 C    1.328    26 N    1.196    24 C    1.183
    26   7 N    3.351 --    22 C    1.226    25 C    1.196     1 Co   0.634
    27   6 C    3.937 --    25 C    1.328    35 C    1.322    28 C    1.031
    28   6 C    3.988 --    34 C    1.392    29 C    1.382    27 C    1.031
    29   6 C    3.986 --    30 C    1.468    28 C    1.382    52 H    0.973
                            33 C    0.102
    30   6 C    3.990 --    29 C    1.468    31 C    1.364    53 H    0.971
                            34 C    0.105
    31   6 C    3.900 --    33 C    1.371    30 C    1.364    32 O    1.041
    32   8 O    2.043 --    31 C    1.041    54 H    0.865
    33   6 C    3.988 --    34 C    1.453    31 C    1.371    55 H    0.970
                            29 C    0.102
    34   6 C    3.987 --    33 C    1.453    28 C    1.392    56 H    0.972
                            30 C    0.105
    35   6 C    3.920 --    27 C    1.322    39 N    1.210    36 C    1.177
    36   6 C    3.963 --    37 C    1.647    35 C    1.177    57 H    0.973
    37   6 C    3.958 --    36 C    1.647    38 C    1.176    58 H    0.975
    38   6 C    3.925 --     2 C    1.363    39 N    1.203    37 C    1.176
    39   7 N    3.348 --    35 C    1.210    38 C    1.203     1 Co   0.638
    40   1 H    1.000 --     2 C    0.970
    41   1 H    0.998 --     4 C    0.975
    42   1 H    1.005 --     5 C    0.973
    43   1 H    1.004 --    10 C    0.973
    44   1 H    0.999 --    11 C    0.970
    45   1 H    0.887 --    13 O    0.865
    46   1 H    0.999 --    14 C    0.971
    47   1 H    1.004 --    15 C    0.973
    48   1 H    1.005 --    17 C    0.973
    49   1 H    1.001 --    18 C    0.973
    50   1 H    1.001 --    23 C    0.973
    51   1 H    1.004 --    24 C    0.973
    52   1 H    1.005 --    29 C    0.973
    53   1 H    0.999 --    30 C    0.971
    54   1 H    0.887 --    32 O    0.865
    55   1 H    0.999 --    33 C    0.970
    56   1 H    1.005 --    34 C    0.972
    57   1 H    1.005 --    36 C    0.973
    58   1 H    0.998 --    37 C    0.975
    59  27 Co   3.029 --    97 N    0.636    65 N    0.636    77 N    0.632
                            84 N    0.631
    60   6 C    3.924 --    61 C    1.366    96 C    1.362    98 H    0.970
    61   6 C    3.925 --    60 C    1.366    65 N    1.200    62 C    1.174
    62   6 C    3.959 --    63 C    1.648    61 C    1.174    99 H    0.975
    63   6 C    3.963 --    62 C    1.648    64 C    1.178   100 H    0.973
    64   6 C    3.918 --    66 C    1.316    65 N    1.215    63 C    1.178
    65   7 N    3.344 --    64 C    1.215    61 C    1.200    59 Co   0.636
    66   6 C    3.929 --    74 C    1.338    64 C    1.316    67 C    1.022
    67   6 C    3.988 --    68 C    1.396    73 C    1.386    66 C    1.022
    68   6 C    3.988 --    69 C    1.451    67 C    1.396   101 H    0.973
                            72 C    0.106
    69   6 C    3.988 --    68 C    1.451    70 C    1.372   102 H    0.970
                            73 C    0.103
    70   6 C    3.902 --    69 C    1.372    72 C    1.364    71 O    1.041
    71   8 O    2.044 --    70 C    1.041   103 H    0.865
    72   6 C    3.990 --    73 C    1.466    70 C    1.364   104 H    0.971
                            68 C    0.106
    73   6 C    3.988 --    72 C    1.466    67 C    1.386   105 H    0.973
                            69 C    0.103
    74   6 C    3.916 --    66 C    1.338    77 N    1.189    75 C    1.180
    75   6 C    3.958 --    76 C    1.638    74 C    1.180   106 H    0.973
    76   6 C    3.962 --    75 C    1.638    78 C    1.190   107 H    0.974
    77   7 N    3.345 --    78 C    1.236    74 C    1.189    59 Co   0.632
    78   6 C    3.903 --    79 C    1.253    77 N    1.236    76 C    1.190
    79   6 C    3.929 --    80 C    1.256    78 C    1.253   128 C    1.199
    80   6 C    3.903 --    79 C    1.256    84 N    1.231    81 C    1.191
    81   6 C    3.961 --    82 C    1.635    80 C    1.191   108 H    0.974
    82   6 C    3.958 --    81 C    1.635    83 C    1.183   109 H    0.973
    83   6 C    3.917 --    85 C    1.329    84 N    1.195    82 C    1.183
    84   7 N    3.345 --    80 C    1.231    83 C    1.195    59 Co   0.631
    85   6 C    3.930 --    83 C    1.329    93 C    1.316    86 C    1.035
    86   6 C    3.988 --    92 C    1.390    87 C    1.380    85 C    1.035
    87   6 C    3.986 --    88 C    1.469    86 C    1.380   110 H    0.972
                            91 C    0.101
    88   6 C    3.990 --    87 C    1.469    89 C    1.363   111 H    0.971
                            92 C    0.104
    89   6 C    3.900 --    91 C    1.370    88 C    1.363    90 O    1.042
    90   8 O    2.044 --    89 C    1.042   112 H    0.864
    91   6 C    3.988 --    92 C    1.454    89 C    1.370   113 H    0.970
                            87 C    0.101
    92   6 C    3.987 --    91 C    1.454    86 C    1.390   114 H    0.972
                            88 C    0.104
    93   6 C    3.919 --    85 C    1.316    97 N    1.213    94 C    1.178
    94   6 C    3.963 --    95 C    1.646    93 C    1.178   115 H    0.973
    95   6 C    3.958 --    94 C    1.646    96 C    1.177   116 H    0.975
    96   6 C    3.925 --    60 C    1.362    97 N    1.202    95 C    1.177
    97   7 N    3.343 --    93 C    1.213    96 C    1.202    59 Co   0.636
    98   1 H    1.000 --    60 C    0.970
    99   1 H    0.998 --    62 C    0.975
   100   1 H    1.005 --    63 C    0.973
   101   1 H    1.004 --    68 C    0.973
   102   1 H    0.999 --    69 C    0.970
   103   1 H    0.887 --    71 O    0.865
   104   1 H    0.999 --    72 C    0.971
   105   1 H    1.004 --    73 C    0.973
   106   1 H    1.005 --    75 C    0.973
   107   1 H    1.001 --    76 C    0.974
   108   1 H    1.001 --    81 C    0.974
   109   1 H    1.004 --    82 C    0.973
   110   1 H    1.005 --    87 C    0.972
   111   1 H    0.999 --    88 C    0.971
   112   1 H    0.886 --    90 O    0.864
   113   1 H    0.999 --    91 C    0.970
   114   1 H    1.005 --    92 C    0.972
   115   1 H    1.004 --    94 C    0.973
   116   1 H    0.998 --    95 C    0.975
   117   6 C    3.921 --   118 C    2.365   121 C    1.336   120 C    0.189
   118   6 C    3.917 --   117 C    2.365   119 C    1.334   122 C    0.188
   119   6 C    3.934 --   120 C    2.450   118 C    1.334
   120   6 C    3.882 --   119 C    2.450    21 C    1.184   117 C    0.189
   121   6 C    3.925 --   122 C    2.443   117 C    1.336
   122   6 C    3.886 --   121 C    2.443   130 C    1.193   118 C    0.188
   123   6 C    3.916 --   124 C    2.347   127 C    1.348   126 C    0.187
   124   6 C    3.919 --   123 C    2.347   125 C    1.349   128 C    0.188
   125   6 C    3.923 --   126 C    2.427   124 C    1.349
   126   6 C    3.884 --   125 C    2.427   149 C    1.205   123 C    0.187
   127   6 C    3.928 --   128 C    2.432   123 C    1.348
   128   6 C    3.880 --   127 C    2.432    79 C    1.199   124 C    0.188
   129  27 Co   3.056 --   167 N    0.632   147 N    0.632   135 N    0.627
                           154 N    0.627
   130   6 C    3.921 --   166 C    1.256   131 C    1.255   122 C    1.193
   131   6 C    3.906 --   130 C    1.255   135 N    1.230   132 C    1.195
   132   6 C    3.958 --   133 C    1.629   131 C    1.195   168 H    0.974
   133   6 C    3.960 --   132 C    1.629   134 C    1.187   169 H    0.973
   134   6 C    3.914 --   136 C    1.316   135 N    1.200   133 C    1.187
   135   7 N    3.339 --   131 C    1.230   134 C    1.200   129 Co   0.627
   136   6 C    3.926 --   144 C    1.324   134 C    1.316   137 C    1.038
   137   6 C    3.987 --   143 C    1.388   138 C    1.378   136 C    1.038
   138   6 C    3.985 --   139 C    1.470   137 C    1.378   170 H    0.972
                           142 C    0.101
   139   6 C    3.990 --   138 C    1.470   140 C    1.361   171 H    0.971
                           143 C    0.104
   140   6 C    3.899 --   142 C    1.369   139 C    1.361   141 O    1.043
   141   8 O    2.046 --   140 C    1.043   172 H    0.864
   142   6 C    3.988 --   143 C    1.455   140 C    1.369   173 H    0.970
                           138 C    0.101
   143   6 C    3.985 --   142 C    1.455   137 C    1.388   174 H    0.972
                           139 C    0.104
   144   6 C    3.914 --   136 C    1.324   147 N    1.194   145 C    1.185
   145   6 C    3.960 --   146 C    1.632   144 C    1.185   175 H    0.973
   146   6 C    3.959 --   145 C    1.632   148 C    1.194   176 H    0.974
   147   7 N    3.337 --   148 C    1.235   144 C    1.194   129 Co   0.632
   148   6 C    3.904 --   149 C    1.250   147 N    1.235   146 C    1.194
   149   6 C    3.919 --   148 C    1.250   150 C    1.249   126 C    1.205
   150   6 C    3.904 --   149 C    1.249   154 N    1.233   151 C    1.195
   151   6 C    3.958 --   152 C    1.629   150 C    1.195   177 H    0.974
   152   6 C    3.960 --   151 C    1.629   153 C    1.187   178 H    0.973
   153   6 C    3.914 --   155 C    1.320   154 N    1.196   152 C    1.187
   154   7 N    3.338 --   150 C    1.233   153 C    1.196   129 Co   0.627
   155   6 C    3.926 --   153 C    1.320   163 C    1.319   156 C    1.038
   156   6 C    3.987 --   157 C    1.388   162 C    1.378   155 C    1.038
   157   6 C    3.985 --   158 C    1.455   156 C    1.388   179 H    0.972
                           161 C    0.104
   158   6 C    3.988 --   157 C    1.455   159 C    1.369   180 H    0.970
                           162 C    0.101
   159   6 C    3.899 --   158 C    1.369   161 C    1.362   160 O    1.043
   160   8 O    2.045 --   159 C    1.043   181 H    0.864
   161   6 C    3.990 --   162 C    1.470   159 C    1.362   182 H    0.971
                           157 C    0.104
   162   6 C    3.985 --   161 C    1.470   156 C    1.378   183 H    0.972
                           158 C    0.101
   163   6 C    3.914 --   155 C    1.319   167 N    1.198   164 C    1.186
   164   6 C    3.961 --   165 C    1.631   163 C    1.186   184 H    0.973
   165   6 C    3.959 --   164 C    1.631   166 C    1.194   185 H    0.974
   166   6 C    3.906 --   130 C    1.256   167 N    1.230   165 C    1.194
   167   7 N    3.338 --   166 C    1.230   163 C    1.198   129 Co   0.632
   168   1 H    1.001 --   132 C    0.974
   169   1 H    1.004 --   133 C    0.973
   170   1 H    1.005 --   138 C    0.972
   171   1 H    0.999 --   139 C    0.971
   172   1 H    0.886 --   141 O    0.864
   173   1 H    0.999 --   142 C    0.970
   174   1 H    1.005 --   143 C    0.972
   175   1 H    1.004 --   145 C    0.973
   176   1 H    1.001 --   146 C    0.974
   177   1 H    1.001 --   151 C    0.974
   178   1 H    1.004 --   152 C    0.973
   179   1 H    1.005 --   157 C    0.972
   180   1 H    0.999 --   158 C    0.970
   181   1 H    0.886 --   160 O    0.864
   182   1 H    0.999 --   161 C    0.971
   183   1 H    1.005 --   162 C    0.972
   184   1 H    1.004 --   164 C    0.973
   185   1 H    1.001 --   165 C    0.974
 ---------------------------------------------------------------------------

           -------------------------------------------------
          | TOTAL ENERGY             -335.251189287193 Eh   |
          | GRADIENT NORM               0.000570248708 Eh/α |
          | HOMO-LUMO GAP               0.007128618577 eV   |
           -------------------------------------------------

 * finished run on 2022/07/30 at 02:44:12.235
