   * xtb version 6.5.1 (b24c23e) compiled by 'conda@728c89f4b128' on 2022-07-12
          program call               : xtb Cu_p-CP_C4_3.xyz --gfn 1 --opt -T 48

   ID    Z sym.   atoms
    1   29 Cu     1, 63, 133
    2    6 C      2-6, 8-11, 13-24, 27-32, 35-39, 42, 43, 64-68, 70-73,
                  75-86, 89-94, 97-101, 104, 105, 125-132, 134-138, 140-143,
                  145-156, 159-164, 167-171, 174, 175
    3    7 N      7, 12, 33, 34, 69, 74, 95, 96, 139, 144, 165, 166
    4    8 O      25, 26, 40, 41, 87, 88, 102, 103, 157, 158, 172, 173
    5    1 H      44-62, 106-124, 176-193

          :  Hamiltonian                  GFN1-xTB          :
 * total energy  :  -370.0454321 Eh     change       -0.1358916E-07 Eh
 * total energy  :  -370.2900070 Eh     change       -0.2445749E+00 Eh
 * total energy  :  -370.3830702 Eh     change       -0.9306314E-01 Eh
 * total energy  :  -370.4297368 Eh     change       -0.4666664E-01 Eh
 * total energy  :  -370.4576335 Eh     change       -0.2789669E-01 Eh
 * total energy  :  -370.4875904 Eh     change       -0.2995690E-01 Eh
 * total energy  :  -370.5210462 Eh     change       -0.3345582E-01 Eh
 * total energy  :  -370.5557666 Eh     change       -0.3472042E-01 Eh
 * total energy  :  -370.5821412 Eh     change       -0.2637455E-01 Eh
 * total energy  :  -370.6123475 Eh     change       -0.3020630E-01 Eh
 * total energy  :  -370.8627141 Eh     change       -0.9013969E-05 Eh
 * total energy  :  -370.8627251 Eh     change       -0.1100141E-04 Eh
 * total energy  :  -370.8627304 Eh     change       -0.5355694E-05 Eh
 * total energy  :  -370.8627309 Eh     change       -0.4776072E-06 Eh
 * total energy  :  -370.8627360 Eh     change       -0.5110576E-05 Eh
 * total energy  :  -370.8627428 Eh     change       -0.6804736E-05 Eh
 * total energy  :  -370.8627491 Eh     change       -0.6273596E-05 Eh
 * total energy  :  -370.8627560 Eh     change       -0.6849333E-05 Eh
 * total energy  :  -370.8627599 Eh     change       -0.3902986E-05 Eh
   *** GEOMETRY OPTIMIZATION CONVERGED AFTER 81 ITERATIONS ***

 final structure:
================
193
 xtb: 6.5.1 (b24c23e)
Cu          35.95290474142278       -0.04803371976757        0.01762830918840
C           32.54807323763529       -0.13609441881324        0.02565736489755
C           33.17617647050766       -0.17399088377394        1.26117239551456
C           32.49326138066098       -0.21124590777536        2.52284448983557
C           33.44582883391395       -0.21981887120742        3.48747583312967
C           34.72098322539914       -0.19846090763646        2.82271069110294
N           34.52572083702762       -0.16277585372372        1.47213516750407
C           35.96174055555829       -0.18370049123223        3.46390959154227
C           37.19864048867348       -0.12485406818832        2.81810631152395
C           38.47298414080189       -0.16520575296922        3.47870739609694
C           39.42407426173451       -0.10973518162726        2.51269419043455
N           37.39357762846738       -0.05711086852410        1.46470231571704
C           38.73943441768314       -0.04189073667324        1.25623474718351
C           39.38034641062468        0.01977042209253        0.00860361512568
C           38.73083187832420        0.06763095825846       -1.23514047500970
C           39.40675900290418        0.10777819728321       -2.49745955169904
C           38.44900077964633        0.13440023803022       -3.45812951498042
C           37.17926810220690        0.11780482795569       -2.78773724081563
C           35.93780171675760        0.11443350008388       -3.42753110012253
C           35.93181948293601        0.18895581635764       -4.90897274114522
C           35.40338097022801       -0.85837853316870       -5.66819224157539
C           35.40075563333243       -0.78752478676937       -7.04906563507410
C           35.92197196026284        0.33402406836915       -7.69709518865395
C           35.89557667006792        0.36432031092399       -9.17875937039552
O           36.42157945565577        1.48211361120326       -9.70275649605894
O           35.45057493424859       -0.51669048015604       -9.86974693053340
C           36.44814963989117        1.38386249630667       -6.94359838079146
C           36.45404899201418        1.30838156062879       -5.56176724094161
C           34.70154646219024        0.04524626783492       -2.78123469964527
C           33.42182241741996        0.08369877204056       -3.43634283602333
C           32.47594866376059        0.00916155014696       -2.46795948419504
C           33.16761549287153       -0.06514796795640       -1.21271827519089
N           34.51570255762932       -0.03694380584633       -1.43136726206779
N           37.38355827415463        0.06981367869801       -1.43489465377026
C           35.96581431383181       -0.23541241743673        4.94639685407829
C           35.44386424741321       -1.34442770357079        5.61736718216989
C           35.44850417425995       -1.39013418571568        6.99930951241098
C           35.97094296860207       -0.32580276164194        7.73669620667425
C           35.95081857252925       -0.41971259272768        9.21595238997289
O           36.47974660321946        0.65016984485744        9.82916825244452
O           35.50722698173877       -1.35510665139981        9.83238874659437
C           36.49161567342776        0.78473817748878        7.07162925204235
C           36.49009493850986        0.82602017841585        5.68830790044641
H           31.46309292870401       -0.15155349646723        0.02872108775626
H           31.42117306923272       -0.22143821687505        2.64060786590135
H           33.30474811113561       -0.22772238965686        4.55626092239629
H           38.61738152989483       -0.24092005764544        4.54425735383440
H           40.49590311517778       -0.11907853188106        2.62973733206666
H           40.47776038453386        0.10876965423978       -2.62226658253126
H           38.58610524674003        0.14960562553602       -4.52721976191359
H           35.00960748823669       -1.73553662671264       -5.16738868166505
H           34.99724024813393       -1.59920892710076       -7.64444812873081
H           36.36627841963722        1.42286786699491      -10.67033976461141
H           36.85031438959749        2.25785880204687       -7.44217487529745
H           36.85217484213704        2.12935446622057       -4.97608655499305
H           33.27340705319746        0.16972288728280       -4.50069472081769
H           31.40305655102614        0.01107743070542       -2.57857547032047
H           35.04901349524864       -2.17714026964730        5.04641092467979
H           35.04954584774662       -2.24999491964973        7.52620918570332
H           36.42880856080571        0.51123211444658       10.78877142033138
H           36.89507870961625        1.61449114874712        7.63992917461385
H           36.88369720692553        1.69428402624025        5.17182406455114
Cu          62.90370836997514       -0.03088090550175       -0.04590381704465
C           66.30845178000162       -0.11492728553931       -0.06815624149184
C           65.67865737233876       -0.00867071207549       -1.29883577508555
C           66.36003980122011        0.10082638322524       -2.55713943822400
C           65.40633453149165        0.20534737025030       -3.51501783116392
C           64.13202960559896        0.15113265094134       -2.85057163357778
N           64.32886929838727        0.02791096729796       -1.50533644248261
C           62.89079810329178        0.24602139612102       -3.48383778909449
C           61.65470668100177        0.23369533541634       -2.83391458292672
C           60.37955200585677        0.27934814048312       -3.49250724846320
C           59.42970697918059        0.22164575429315       -2.52535973602571
N           61.46146998751686        0.13848158744024       -1.48191151574087
C           60.11598038164436        0.13345626224415       -1.27107107227338
C           59.47659012788267        0.03790162303249       -0.02477986416726
C           60.12736254421225       -0.07302685226975        1.21424613881854
C           59.45282218069767       -0.19134448032922        2.47237858875260
C           60.41165861663158       -0.28057012105449        3.42817542756612
C           61.68059263620581       -0.21086066128378        2.75967910930954
C           62.92269222077626       -0.28643111067454        3.39361640614402
C           62.93048307474672       -0.38833650770719        4.87341746962605
C           63.46398640044016       -1.51613234459065        5.50272882022028
C           63.47136232097252       -1.60767733481750        6.88235705950077
C           62.94994557960169       -0.57122257274030        7.65912104841338
C           62.98481930411099       -0.71343158746388        9.13418115322629
O           62.45817007729833        0.33360355610092        9.78740276721617
O           63.43713339691117       -1.66704908832149        9.71536746748792
C           62.41715740255491        0.55758601367865        7.03572164914320
C           62.40640488421517        0.64463104677328        5.65457029876393
C           64.15841473621249       -0.27283984614186        2.74274302300923
C           65.43887895622086       -0.30923560162481        3.39650773948300
C           66.38369066009253       -0.26512062049981        2.42523214762637
C           65.69058541211842       -0.19128428827884        1.17073962799064
N           64.34274906909974       -0.19255975131920        1.39256041185462
N           61.47487005863480       -0.09319745128620        1.41135276413254
C           62.88455762630025        0.36781326397350       -4.96224167769709
C           63.39776523681488       -0.65914374013818       -5.75882444248917
C           63.38800746517266       -0.54505804124915       -7.13675476670119
C           62.86965514948041        0.60021459884735       -7.74436274927362
C           62.88207052488502        0.67615512302904       -9.22460626784137
O           62.35993389237562        1.81345741793376       -9.70875672134242
O           63.31329302645478       -0.18674401478360       -9.94661597802158
C           62.35908910491808        1.63001640365597       -6.95339641101958
C           62.36535489104137        1.51122494419738       -5.57457385104579
H           67.39343879571402       -0.12845050689707       -0.07447883143108
H           67.43198460970376        0.10346432268336       -2.67660651878954
H           65.54600324490822        0.32154344928008       -4.57769411177563
H           60.23363714578219        0.33372031412831       -4.55915707480516
H           58.35771387234396        0.23112505688592       -2.64094358066821
H           58.38197858378786       -0.20824523960591        2.59735679600950
H           60.27601306981857       -0.39747755601385        4.49114074844047
H           63.85832510547812       -2.32717445248450        4.90108761988503
H           63.87927822256430       -2.48224682115941        7.37719828505662
H           62.51950712543037        0.16290661605947       10.74127771317606
H           62.01430227811860        1.36579556670837        7.63461657640790
H           62.00356824390171        1.52719952474668        5.17051048172372
H           65.58845810980014       -0.35067960397143        4.46336036316742
H           67.45670174698527       -0.27358498689250        2.53433120576109
H           63.78924531362155       -1.55450797619431       -5.28940729575780
H           63.77933199420184       -1.34075728293166       -7.76117580161059
H           62.40531039285562        1.78374085451357      -10.67821346525703
H           61.95935333126555        2.52237957530662       -7.42043269441877
H           61.97905547589256        2.31639622524549       -4.95974718429799
C           42.01151587347557        0.02429986084563       -0.00031148291214
C           40.79100878063372        0.02424618725530        0.00384276870799
C           43.36472453048751        0.02385353843610       -0.00557994993286
C           44.58531262590817        0.02048854481849       -0.01171581869751
C           55.49245495427790        0.03657483786043       -0.01180815852318
C           54.27190637927698        0.03033842263168       -0.01246763450919
C           56.84554189036074        0.04007584663151       -0.01426637202855
C           58.06609087840469        0.04116568253666       -0.01813307312000
Cu          49.42862284138684        0.02403914593284       -0.02206099038274
C           45.99548925534399        0.02079795555995       -0.01765401750022
C           46.64263179325778       -1.22524806691394        0.01401202553287
C           45.96581405352932       -2.48781752727688        0.00282346611384
C           46.92237038024121       -3.44923049066369        0.04638080867714
C           48.19113741518763       -2.77854196877948        0.09549157579628
N           47.98831991062870       -1.42542972417412        0.06485493697528
C           49.43249671435892       -3.41673836947847        0.14673552881579
C           50.67258204223548       -2.77407708385419        0.13880295383735
C           51.94234733696588       -3.43352528257599        0.25985866990361
C           52.89661036283997       -2.46973208105645        0.21724511854824
N           50.87244189178186       -1.42390158046217        0.03889365016710
C           52.21719241046095       -1.21612468192005        0.07851571924643
C           52.86188902634461        0.02815243252023       -0.01473368938202
C           52.21480151288763        1.27077810247481       -0.11231939521401
C           52.89166339585701        2.52591133297910       -0.24888432046842
C           51.93515087354757        3.48709061786157       -0.29900060569793
C           50.66645735749090        2.82444028641553       -0.18401079276528
C           49.42515954701475        3.46468239030504       -0.19728292118720
C           49.42517374287982        4.94641336092333       -0.26448823588864
C           50.00723610445759        5.69863202825405        0.75940167431133
C           50.00397627029640        7.07989228758459        0.69962542050695
C           49.42341563615724        7.73561389275395       -0.38782892474312
C           49.44596585940980        9.21749390541327       -0.40725451728810
O           48.86161564320759        9.74975247038464       -1.49166579626395
O           49.93516397623299        9.90204232326402        0.45526200871164
C           48.84395072256859        6.98927502907103       -1.41451096224079
C           48.84371307817763        5.60682466613735       -1.34971404446878
C           48.18486480979655        2.82441873576057       -0.14686421711725
C           46.91485663976182        3.49254527348036       -0.09747597181447
C           45.96055284692690        2.52920442662700       -0.04625034982094
C           46.64010014950496        1.26807693310449       -0.05500009750185
N           47.98504168018108        1.47100848906986       -0.11162155928156
N           50.86913355741662        1.47498710675845       -0.08136249190132
C           49.43450142220264       -4.89840984836032        0.21807133852426
C           48.85220343369055       -5.55488377290284        1.30554325161182
C           48.85796702116688       -6.93595629687983        1.37204617925793
C           49.44131784015069       -7.68719766200872        0.34992833529445
C           49.42072032889606       -9.16495398722697        0.46525490207870
O           50.00983560348025       -9.79232075075300       -0.56415168987595
O           48.92852442589660       -9.76891672038262        1.38427409881300
C           50.02162079111159       -7.03673521217984       -0.73952058673325
C           50.01935298113053       -5.65418102050586       -0.80117717559450
H           44.89570183814634       -2.61215775969293       -0.04179076663920
H           46.78548134571580       -4.51835871575915        0.03323887370593
H           52.08130873545338       -4.49609053404997        0.37667864354593
H           53.96665619365862       -2.58604461894805        0.28132058882185
H           53.96173996235622        2.64549312379221       -0.30592838501126
H           52.07218815964001        4.54976538038035       -0.41693686854564
H           50.44786560673813        5.19152253455759        1.61026968987916
H           50.44886843585382        7.66958786728158        1.49365149727727
H           48.91809832891254       10.71692354478301       -1.42714503164097
H           48.39582885045009        7.49396397221221       -2.26227126963590
H           48.40379705827550        5.02695256016742       -2.15330152937018
H           46.77544299349907        4.56142030699606       -0.08907709648607
H           44.89034215126837        2.65154167992850        0.00175552218018
H           48.40937292477252       -4.97317168350769        2.10601698069794
H           48.41294691388688       -7.45152756396636        2.21600608901516
H           49.95381633131222      -10.74985114332770       -0.41319599496517
H           50.47225089120737       -7.61585520266510       -1.53685288857580
H           50.46000515569587       -5.14918824733329       -1.65341932656414

          :  Hamiltonian                  GFN1-xTB          :
         :: total energy            -370.862759868200 Eh    ::
         :: gradient norm              0.000400351408 Eh/a0 ::
         :: HOMO-LUMO gap              0.000035090471 eV    ::
         :: SCC energy              -376.175955061054 Eh    ::
         :: repulsion energy           5.486252241014 Eh    ::

    * Orbital Energies and Occupations

         #    Occupation            Energy/Eh            Energy/eV
      -------------------------------------------------------------
         1        2.0000           -0.8331385             -22.6709
       ...           ...                  ...                  ...
       319        2.0000           -0.4181413             -11.3782
       320        2.0000           -0.4181393             -11.3782
       321        2.0000           -0.4176833             -11.3657
       322        2.0000           -0.4175761             -11.3628
       323        2.0000           -0.4173042             -11.3554
       324        2.0000           -0.4056964             -11.0396
       325        2.0000           -0.4055949             -11.0368
       326        2.0000           -0.4055944             -11.0368
       327        2.0000           -0.3965284             -10.7901
       328        2.0000           -0.3962021             -10.7812
       329        2.0000           -0.3931560             -10.6983
       330        1.0235           -0.3657299              -9.9520
       331        0.9886           -0.3656553              -9.9500 (HOMO)
       332        0.9880           -0.3656540              -9.9500 (LUMO)
       333                         -0.3448108              -9.3828
       334                         -0.3414349              -9.2909
       335                         -0.3410599              -9.2807
       336                         -0.3396032              -9.2411
       337                         -0.3395904              -9.2407
       338                         -0.3395765              -9.2403
       339                         -0.3168287              -8.6213
       340                         -0.3147858              -8.5658
       341                         -0.3147479              -8.5647
       342                         -0.3087532              -8.4016
       ...                                ...                  ...
       675                          1.5090521              41.0634
      -------------------------------------------------------------
                  HL-Gap            0.0000013 Eh            0.0000 eV

Wiberg/Mayer (AO) data.
largest (>0.10) Wiberg bond orders for each atom

     #   Z sym  total        # sym  WBO       # sym  WBO       # sym  WBO
 ---------------------------------------------------------------------------
     1  29 Cu   2.192 --    33 N    0.507     7 N    0.507    12 N    0.504
                            34 N    0.503
     2   6 C    3.933 --    32 C    1.362     3 C    1.362    44 H    0.971
     3   6 C    3.916 --     2 C    1.362     7 N    1.229     4 C    1.169
     4   6 C    3.955 --     5 C    1.658     3 C    1.169    45 H    0.975
     5   6 C    3.958 --     4 C    1.658     6 C    1.171    46 H    0.973
     6   6 C    3.914 --     8 C    1.320     7 N    1.239     5 C    1.171
     7   7 N    3.246 --     6 C    1.239     3 C    1.229     1 Cu   0.507
     8   6 C    3.936 --     9 C    1.324     6 C    1.320    35 C    1.029
     9   6 C    3.908 --     8 C    1.324    12 N    1.225    10 C    1.178
    10   6 C    3.956 --    11 C    1.645     9 C    1.178    47 H    0.973
    11   6 C    3.957 --    10 C    1.645    13 C    1.184    48 H    0.974
    12   7 N    3.249 --    13 C    1.251     9 C    1.225     1 Cu   0.504
    13   6 C    3.901 --    14 C    1.269    12 N    1.251    11 C    1.184
    14   6 C    3.942 --    13 C    1.269    15 C    1.269   126 C    1.168
    15   6 C    3.901 --    14 C    1.269    34 N    1.251    16 C    1.184
    16   6 C    3.957 --    17 C    1.645    15 C    1.184    49 H    0.974
    17   6 C    3.956 --    16 C    1.645    18 C    1.178    50 H    0.973
    18   6 C    3.909 --    19 C    1.324    34 N    1.226    17 C    1.178
    19   6 C    3.936 --    18 C    1.324    29 C    1.320    20 C    1.029
    20   6 C    3.986 --    28 C    1.387    21 C    1.385    19 C    1.029
    21   6 C    3.987 --    22 C    1.464    20 C    1.385    51 H    0.972
                            27 C    0.102
    22   6 C    3.990 --    21 C    1.464    23 C    1.385    52 H    0.968
                            28 C    0.102
    23   6 C    3.983 --    27 C    1.388    22 C    1.385    24 C    1.010
    24   6 C    3.836 --    26 O    1.689    25 O    1.087    23 C    1.010
    25   8 O    2.096 --    24 C    1.087    53 H    0.838    26 O    0.128
    26   8 O    1.958 --    24 C    1.689    25 O    0.128
    27   6 C    3.991 --    28 C    1.462    23 C    1.388    54 H    0.970
                            21 C    0.102
    28   6 C    3.988 --    27 C    1.462    20 C    1.387    55 H    0.972
                            22 C    0.102
    29   6 C    3.914 --    19 C    1.320    33 N    1.239    30 C    1.171
    30   6 C    3.958 --    31 C    1.658    29 C    1.171    56 H    0.973
    31   6 C    3.955 --    30 C    1.658    32 C    1.169    57 H    0.975
    32   6 C    3.916 --     2 C    1.362    33 N    1.228    31 C    1.169
    33   7 N    3.246 --    29 C    1.239    32 C    1.228     1 Cu   0.507
    34   7 N    3.249 --    15 C    1.251    18 C    1.226     1 Cu   0.503
    35   6 C    3.986 --    43 C    1.387    36 C    1.385     8 C    1.029
    36   6 C    3.987 --    37 C    1.464    35 C    1.385    58 H    0.972
                            42 C    0.103
    37   6 C    3.990 --    36 C    1.464    38 C    1.385    59 H    0.968
                            43 C    0.103
    38   6 C    3.983 --    42 C    1.388    37 C    1.385    39 C    1.010
    39   6 C    3.836 --    41 O    1.690    40 O    1.088    38 C    1.010
    40   8 O    2.096 --    39 C    1.088    60 H    0.838    41 O    0.128
    41   8 O    1.958 --    39 C    1.690    40 O    0.128
    42   6 C    3.991 --    43 C    1.461    38 C    1.388    61 H    0.970
                            36 C    0.103
    43   6 C    3.988 --    42 C    1.461    35 C    1.387    62 H    0.972
                            37 C    0.103
    44   1 H    1.001 --     2 C    0.971
    45   1 H    0.997 --     4 C    0.975
    46   1 H    1.004 --     5 C    0.973
    47   1 H    1.004 --    10 C    0.973
    48   1 H    1.002 --    11 C    0.974
    49   1 H    1.002 --    16 C    0.974
    50   1 H    1.004 --    17 C    0.973
    51   1 H    1.004 --    21 C    0.972
    52   1 H    1.005 --    22 C    0.968
    53   1 H    0.873 --    25 O    0.838
    54   1 H    1.005 --    27 C    0.970
    55   1 H    1.004 --    28 C    0.972
    56   1 H    1.004 --    30 C    0.973
    57   1 H    0.997 --    31 C    0.975
    58   1 H    1.004 --    36 C    0.972
    59   1 H    1.005 --    37 C    0.968
    60   1 H    0.873 --    40 O    0.838
    61   1 H    1.005 --    42 C    0.970
    62   1 H    1.004 --    43 C    0.972
    63  29 Cu   2.192 --    69 N    0.507    95 N    0.507    96 N    0.504
                            74 N    0.503
    64   6 C    3.933 --    94 C    1.362    65 C    1.362   106 H    0.971
    65   6 C    3.916 --    64 C    1.362    69 N    1.229    66 C    1.169
    66   6 C    3.955 --    67 C    1.658    65 C    1.169   107 H    0.975
    67   6 C    3.958 --    66 C    1.658    68 C    1.171   108 H    0.973
    68   6 C    3.914 --    70 C    1.320    69 N    1.239    67 C    1.171
    69   7 N    3.246 --    68 C    1.239    65 C    1.229    63 Cu   0.507
    70   6 C    3.935 --    71 C    1.324    68 C    1.320    97 C    1.029
    71   6 C    3.909 --    70 C    1.324    74 N    1.225    72 C    1.178
    72   6 C    3.956 --    73 C    1.645    71 C    1.178   109 H    0.973
    73   6 C    3.957 --    72 C    1.645    75 C    1.184   110 H    0.974
    74   7 N    3.249 --    75 C    1.251    71 C    1.225    63 Cu   0.503
    75   6 C    3.901 --    76 C    1.269    74 N    1.251    73 C    1.184
    76   6 C    3.942 --    77 C    1.269    75 C    1.269   132 C    1.169
    77   6 C    3.901 --    76 C    1.269    96 N    1.251    78 C    1.184
    78   6 C    3.957 --    79 C    1.645    77 C    1.184   111 H    0.974
    79   6 C    3.956 --    78 C    1.645    80 C    1.178   112 H    0.973
    80   6 C    3.908 --    81 C    1.324    96 N    1.226    79 C    1.178
    81   6 C    3.936 --    80 C    1.324    91 C    1.320    82 C    1.029
    82   6 C    3.986 --    90 C    1.387    83 C    1.385    81 C    1.029
    83   6 C    3.987 --    84 C    1.464    82 C    1.385   113 H    0.972
                            89 C    0.103
    84   6 C    3.990 --    83 C    1.464    85 C    1.385   114 H    0.968
                            90 C    0.103
    85   6 C    3.983 --    89 C    1.388    84 C    1.385    86 C    1.010
    86   6 C    3.836 --    88 O    1.689    87 O    1.088    85 C    1.010
    87   8 O    2.096 --    86 C    1.088   115 H    0.838    88 O    0.128
    88   8 O    1.958 --    86 C    1.689    87 O    0.128
    89   6 C    3.991 --    90 C    1.461    85 C    1.388   116 H    0.970
                            83 C    0.103
    90   6 C    3.988 --    89 C    1.461    82 C    1.387   117 H    0.972
                            84 C    0.103
    91   6 C    3.914 --    81 C    1.320    95 N    1.239    92 C    1.171
    92   6 C    3.958 --    93 C    1.658    91 C    1.171   118 H    0.973
    93   6 C    3.955 --    92 C    1.658    94 C    1.169   119 H    0.975
    94   6 C    3.916 --    64 C    1.362    95 N    1.229    93 C    1.169
    95   7 N    3.246 --    91 C    1.239    94 C    1.229    63 Cu   0.507
    96   7 N    3.249 --    77 C    1.251    80 C    1.226    63 Cu   0.504
    97   6 C    3.986 --   105 C    1.387    98 C    1.385    70 C    1.029
    98   6 C    3.987 --    99 C    1.464    97 C    1.385   120 H    0.972
                           104 C    0.102
    99   6 C    3.990 --    98 C    1.464   100 C    1.385   121 H    0.968
                           105 C    0.103
   100   6 C    3.983 --   104 C    1.388    99 C    1.385   101 C    1.010
   101   6 C    3.836 --   103 O    1.689   102 O    1.088   100 C    1.010
   102   8 O    2.096 --   101 C    1.088   122 H    0.838   103 O    0.128
   103   8 O    1.957 --   101 C    1.689   102 O    0.128
   104   6 C    3.991 --   105 C    1.462   100 C    1.388   123 H    0.970
                            98 C    0.102
   105   6 C    3.988 --   104 C    1.462    97 C    1.387   124 H    0.972
                            99 C    0.103
   106   1 H    1.001 --    64 C    0.971
   107   1 H    0.997 --    66 C    0.975
   108   1 H    1.004 --    67 C    0.973
   109   1 H    1.004 --    72 C    0.973
   110   1 H    1.002 --    73 C    0.974
   111   1 H    1.002 --    78 C    0.974
   112   1 H    1.004 --    79 C    0.973
   113   1 H    1.004 --    83 C    0.972
   114   1 H    1.005 --    84 C    0.968
   115   1 H    0.873 --    87 O    0.838
   116   1 H    1.005 --    89 C    0.970
   117   1 H    1.004 --    90 C    0.972
   118   1 H    1.004 --    92 C    0.973
   119   1 H    0.997 --    93 C    0.975
   120   1 H    1.004 --    98 C    0.972
   121   1 H    1.005 --    99 C    0.968
   122   1 H    0.873 --   102 O    0.838
   123   1 H    1.005 --   104 C    0.970
   124   1 H    1.004 --   105 C    0.972
   125   6 C    3.935 --   126 C    2.496   127 C    1.290
   126   6 C    3.919 --   125 C    2.496    14 C    1.168   128 C    0.197
   127   6 C    3.933 --   128 C    2.495   125 C    1.290
   128   6 C    3.920 --   127 C    2.495   134 C    1.170   126 C    0.197
   129   6 C    3.933 --   130 C    2.495   131 C    1.290
   130   6 C    3.920 --   129 C    2.495   146 C    1.170   132 C    0.197
   131   6 C    3.935 --   132 C    2.496   129 C    1.290
   132   6 C    3.919 --   131 C    2.496    76 C    1.169   130 C    0.197
   133  29 Cu   2.160 --   139 N    0.498   166 N    0.498   144 N    0.498
                           165 N    0.498
   134   6 C    3.933 --   135 C    1.267   164 C    1.267   128 C    1.170
   135   6 C    3.901 --   134 C    1.267   139 N    1.254   136 C    1.184
   136   6 C    3.956 --   137 C    1.645   135 C    1.184   176 H    0.974
   137   6 C    3.957 --   136 C    1.645   138 C    1.178   177 H    0.973
   138   6 C    3.907 --   140 C    1.322   139 N    1.226   137 C    1.178
   139   7 N    3.243 --   135 C    1.254   138 C    1.226   133 Cu   0.498
   140   6 C    3.932 --   138 C    1.322   141 C    1.322   167 C    1.030
   141   6 C    3.907 --   140 C    1.322   144 N    1.227   142 C    1.178
   142   6 C    3.957 --   143 C    1.645   141 C    1.178   178 H    0.973
   143   6 C    3.956 --   142 C    1.645   145 C    1.184   179 H    0.974
   144   7 N    3.243 --   145 C    1.254   141 C    1.227   133 Cu   0.498
   145   6 C    3.901 --   146 C    1.267   144 N    1.254   143 C    1.184
   146   6 C    3.933 --   147 C    1.267   145 C    1.267   130 C    1.170
   147   6 C    3.901 --   146 C    1.267   166 N    1.254   148 C    1.184
   148   6 C    3.956 --   149 C    1.645   147 C    1.184   180 H    0.974
   149   6 C    3.957 --   148 C    1.645   150 C    1.178   181 H    0.973
   150   6 C    3.907 --   151 C    1.322   166 N    1.227   149 C    1.178
   151   6 C    3.932 --   161 C    1.322   150 C    1.322   152 C    1.030
   152   6 C    3.986 --   160 C    1.387   153 C    1.385   151 C    1.030
   153   6 C    3.987 --   154 C    1.465   152 C    1.385   182 H    0.972
                           159 C    0.102
   154   6 C    3.990 --   153 C    1.465   155 C    1.384   183 H    0.968
                           160 C    0.102
   155   6 C    3.982 --   159 C    1.388   154 C    1.384   156 C    1.010
   156   6 C    3.835 --   158 O    1.689   157 O    1.087   155 C    1.010
   157   8 O    2.096 --   156 C    1.087   184 H    0.839   158 O    0.128
   158   8 O    1.957 --   156 C    1.689   157 O    0.128
   159   6 C    3.991 --   160 C    1.462   155 C    1.388   185 H    0.970
                           153 C    0.102
   160   6 C    3.987 --   159 C    1.462   152 C    1.387   186 H    0.972
                           154 C    0.102
   161   6 C    3.907 --   151 C    1.322   165 N    1.227   162 C    1.178
   162   6 C    3.957 --   163 C    1.644   161 C    1.178   187 H    0.973
   163   6 C    3.956 --   162 C    1.644   164 C    1.184   188 H    0.974
   164   6 C    3.902 --   134 C    1.267   165 N    1.254   163 C    1.184
   165   7 N    3.243 --   164 C    1.254   161 C    1.227   133 Cu   0.498
   166   7 N    3.243 --   147 C    1.254   150 C    1.227   133 Cu   0.498
   167   6 C    3.986 --   175 C    1.386   168 C    1.385   140 C    1.030
   168   6 C    3.987 --   169 C    1.464   167 C    1.385   189 H    0.972
                           174 C    0.103
   169   6 C    3.990 --   168 C    1.464   170 C    1.385   190 H    0.968
                           175 C    0.103
   170   6 C    3.983 --   174 C    1.388   169 C    1.385   171 C    1.010
   171   6 C    3.836 --   173 O    1.690   172 O    1.088   170 C    1.010
   172   8 O    2.096 --   171 C    1.088   191 H    0.838   173 O    0.128
   173   8 O    1.958 --   171 C    1.690   172 O    0.128
   174   6 C    3.991 --   175 C    1.462   170 C    1.388   192 H    0.970
                           168 C    0.103
   175   6 C    3.987 --   174 C    1.462   167 C    1.386   193 H    0.972
                           169 C    0.103
   176   1 H    1.002 --   136 C    0.974
   177   1 H    1.004 --   137 C    0.973
   178   1 H    1.004 --   142 C    0.973
   179   1 H    1.002 --   143 C    0.974
   180   1 H    1.002 --   148 C    0.974
   181   1 H    1.004 --   149 C    0.973
   182   1 H    1.004 --   153 C    0.972
   183   1 H    1.005 --   154 C    0.968
   184   1 H    0.873 --   157 O    0.839
   185   1 H    1.005 --   159 C    0.970
   186   1 H    1.004 --   160 C    0.972
   187   1 H    1.004 --   162 C    0.973
   188   1 H    1.002 --   163 C    0.974
   189   1 H    1.004 --   168 C    0.972
   190   1 H    1.005 --   169 C    0.968
   191   1 H    0.873 --   172 O    0.838
   192   1 H    1.005 --   174 C    0.970
   193   1 H    1.004 --   175 C    0.972
 ---------------------------------------------------------------------------

           -------------------------------------------------
          | TOTAL ENERGY             -370.862759868200 Eh   |
          | GRADIENT NORM               0.000400351408 Eh/α |
          | HOMO-LUMO GAP               0.000035090471 eV   |
           -------------------------------------------------

 * finished run on 2022/07/30 at 09:44:12.010
