   * xtb version 6.5.1 (b24c23e) compiled by 'conda@728c89f4b128' on 2022-07-12
          program call               : xtb Ni_H_C6_2.xyz --gfn 1 --opt -T 48

   ID    Z sym.   atoms
    1   28 Ni     1, 37
    2    6 C      2-6, 8-11, 13-18, 20-24, 38-42, 44-47, 49-54, 56-60, 73-78
    3    7 N      7, 12, 19, 25, 43, 48, 55, 61
    4    1 H      26-36, 62-72
########################################################################
[WARNING] Please study the warnings concerning your input carefully
-1- prog_main_parseArguments: Unknown option '-T' provided
########################################################################

          :  Hamiltonian                  GFN1-xTB          :
 * total energy  :  -141.6675544 Eh     change       -0.4204139E-09 Eh
 * total energy  :  -142.5515689 Eh     change       -0.8840145E+00 Eh
 * total energy  :  -142.6673117 Eh     change       -0.1157428E+00 Eh
 * total energy  :  -142.7191568 Eh     change       -0.5184513E-01 Eh
 * total energy  :  -142.7403474 Eh     change       -0.2119060E-01 Eh
 * total energy  :  -142.7507031 Eh     change       -0.1035569E-01 Eh
 * total energy  :  -142.7577523 Eh     change       -0.7049160E-02 Eh
 * total energy  :  -142.7629405 Eh     change       -0.5188199E-02 Eh
 * total energy  :  -142.7663856 Eh     change       -0.3445135E-02 Eh
 * total energy  :  -142.7685349 Eh     change       -0.2149261E-02 Eh
 * total energy  :  -142.7721820 Eh     change       -0.6895438E-05 Eh
 * total energy  :  -142.7721902 Eh     change       -0.8143428E-05 Eh
 * total energy  :  -142.7721978 Eh     change       -0.7621943E-05 Eh
 * total energy  :  -142.7722027 Eh     change       -0.4899541E-05 Eh
 * total energy  :  -142.7722118 Eh     change       -0.9141314E-05 Eh
 * total energy  :  -142.7722204 Eh     change       -0.8544911E-05 Eh
 * total energy  :  -142.7722285 Eh     change       -0.8097813E-05 Eh
 * total energy  :  -142.7722339 Eh     change       -0.5421095E-05 Eh
 * total energy  :  -142.7722380 Eh     change       -0.4067634E-05 Eh
   *** GEOMETRY OPTIMIZATION CONVERGED AFTER 31 ITERATIONS ***

 final structure:
================
78
 xtb: 6.5.1 (b24c23e)
Ni           6.51345910454722       -0.02144230219252       -0.01315638137556
C            3.10275657739431       -0.05926861885565       -0.02951514537366
C            3.76642457277653       -0.90443452905431       -0.89468321621725
C            3.10185486898836       -1.79305795833790       -1.80189341277640
C            4.06999973451867       -2.45016721320989       -2.48187075760653
C            5.32347898245133       -1.96414322702505       -1.98567495934538
N            5.12834859984338       -1.01510188139253       -1.01490663818909
C            6.54861440791275       -2.41484207189716       -2.43146885528079
C            7.75941694052027       -1.96485158257020       -1.94871904624452
C            9.02336656382158       -2.45390974355089       -2.40797530962779
C            9.97354702133133       -1.78779345072156       -1.70967112131257
N            7.93184687412924       -1.00603647665388       -0.97756413921189
C            9.28625582558375       -0.89304551073780       -0.83001299241139
C            9.94461316618716       -0.01951366086501        0.03983561906846
C            9.25930895537542        0.86184758753278        0.88041393814218
C            9.91841274669344        1.77194342831261        1.76573065748527
C            8.94649085394336        2.45604587384297        2.41521815249217
C            7.69776603815558        1.95836761532595        1.92473885700783
N            7.90102645717568        0.98001767058680        0.97924929305780
C            6.47211565613923        2.40995481303970        2.36704109263526
C            5.26160354942488        1.92975862676265        1.91208490182629
C            3.99287650748799        2.39564505139062        2.38855867701939
C            3.04623642745297        1.69743834920894        1.71928147031051
C            3.73913211253630        0.80914068414711        0.83325890194640
N            5.09694698329731        0.95660902140857        0.95978173346661
H            2.01908497582123       -0.07372360762133       -0.03230283081441
H            2.03080693181231       -1.88416835359707       -1.89043159057086
H            3.96842388609792       -3.19991079825857       -3.25053318938062
H            6.56105558862770       -3.17439317863992       -3.20462485583760
H            9.14631748123355       -3.21026414095610       -3.16674116672357
H           11.04610097054888       -1.87848241000529       -1.77210240709817
H           10.98841119105134        1.86142851731124        1.86356422052844
H            9.04554071680169        3.22786563430781        3.16182046619355
H            6.46012495494022        3.18676842606476        3.12285372234764
H            3.86712877047855        3.15909346422862        3.13996536696369
H            1.97266211217358        1.76250487502067        1.79988207941036
Ni          22.55244281462497        0.02264070854830        0.00577155823060
C           25.96318842442786        0.06289822266929        0.01035830314166
C           25.29886814284221        1.27004779248236       -0.05891965382261
C           25.96275463306825        2.53814765162024       -0.13298975341461
C           24.99407085649725        3.48147950371388       -0.19004978180162
C           23.74098806878945        2.78753767176473       -0.14713337827229
N           23.93685147653565        1.43228263316056       -0.06938251183557
C           22.51557259332100        3.42050464972130       -0.16977686510657
C           21.30514929415577        2.76222826547608       -0.11385750596387
C           20.04092356909762        3.43247338912922       -0.12222112860197
C           19.09122384680927        2.46930948890463       -0.05407861755649
N           21.13339314704004        1.39926274919773       -0.04193525158683
C           19.77913667039562        1.21576035307150       -0.00824162124760
C           19.12134873384880       -0.01612945765905        0.04722843532566
C           19.80715677250262       -1.23336289298553        0.07578796959811
C           19.14871822248131       -2.50259443492175        0.12072552507900
C           20.12113060160426       -3.44519322373339        0.14121661302125
C           21.36951499986436       -2.74641569307978        0.11145640436853
N           21.16557049627174       -1.38665196226244        0.06911471012124
C           22.59547900100413       -3.37754151310669        0.13363761155249
C           23.80569501200254       -2.71571700381302        0.11664119538650
C           25.07479930431340       -3.38039694670087        0.15313076315150
C           26.02096738764324       -2.41320344478472        0.12392850398219
C           25.32741584500329       -1.16023438680198        0.06664928102013
N           23.96965844930725       -1.35501967774889        0.06496327078703
H           27.04686725609702        0.07589867769384        0.01506374099946
H           27.03373434546681        2.66555504118808       -0.14013882287573
H           25.09495657888914        4.55342775021300       -0.25348636345774
H           22.50258045620617        4.50269907320012       -0.22913020052305
H           19.91735875099032        4.50254217627958       -0.17312073935716
H           18.01866727889589        2.57807020739772       -0.03824906708731
H           18.07875522261803       -2.63498907972388        0.13355002800334
H           20.02274214208321       -4.51856240464739        0.17543089675066
H           22.60800685707431       -4.46070960539559        0.17166784372913
H           25.20119195193745       -4.45065102633960        0.19623790440215
H           27.09462608627824       -2.51510076882713        0.13695322007082
C           15.14663395812140       -0.02705997673055        0.08644480524868
C           13.91925465701177       -0.02520172919630        0.08348670063035
C           12.57337622127564       -0.01899902702172        0.07760777395706
C           11.35053408555182       -0.02253443062518        0.06089081320538
C           16.49252932002047       -0.02943767266262        0.07910017793087
C           17.71545436075670       -0.02891756901176        0.06615607831752

          :  Hamiltonian                  GFN1-xTB          :
         :: total energy            -142.772237970021 Eh    ::
         :: gradient norm              0.000788563476 Eh/a0 ::
         :: HOMO-LUMO gap              1.336714595550 eV    ::
         :: SCC energy              -145.070504871919 Eh    ::
         :: repulsion energy           2.363953875585 Eh    ::

    * Orbital Energies and Occupations

         #    Occupation            Energy/Eh            Energy/eV
      -------------------------------------------------------------
         1        2.0000           -0.7812881             -21.2599
       ...           ...                  ...                  ...
       121        2.0000           -0.4180732             -11.3764
       122        2.0000           -0.3990378             -10.8584
       123        2.0000           -0.3990278             -10.8581
       124        2.0000           -0.3988347             -10.8528
       125        2.0000           -0.3988341             -10.8528
       126        2.0000           -0.3978814             -10.8269
       127        2.0000           -0.3978813             -10.8269
       128        2.0000           -0.3969618             -10.8019
       129        2.0000           -0.3969617             -10.8019
       130        2.0000           -0.3968417             -10.7986
       131        2.0000           -0.3968394             -10.7986
       132        2.0000           -0.3957814             -10.7698
       133        2.0000           -0.3882472             -10.5647 (HOMO)
       134                         -0.3391238              -9.2280 (LUMO)
       135                         -0.3311222              -9.0103
       136                         -0.3301055              -8.9826
       137                         -0.3301048              -8.9826
       138                         -0.3297585              -8.9732
       139                         -0.3297533              -8.9730
       140                         -0.2997453              -8.1565
       141                         -0.2957086              -8.0466
       142                         -0.2798957              -7.6163
       143                         -0.2650286              -7.2118
       144                         -0.2325580              -6.3282
       ...                                ...                  ...
       278                          1.5790956              42.9694
      -------------------------------------------------------------
                  HL-Gap            0.0491234 Eh            1.3367 eV

Wiberg/Mayer (AO) data.
largest (>0.10) Wiberg bond orders for each atom

     #   Z sym  total        # sym  WBO       # sym  WBO       # sym  WBO
 ---------------------------------------------------------------------------
     1  28 Ni   3.012 --     7 N    0.665    25 N    0.665    12 N    0.661
                            19 N    0.661
     2   6 C    3.940 --     3 C    1.365    24 C    1.365    26 H    0.970
     3   6 C    3.923 --     2 C    1.365     7 N    1.218     4 C    1.170
     4   6 C    3.960 --     5 C    1.655     3 C    1.170    27 H    0.975
     5   6 C    3.962 --     4 C    1.655     6 C    1.171    28 H    0.975
     6   6 C    3.921 --     8 C    1.363     7 N    1.217     5 C    1.171
     7   7 N    3.406 --     3 C    1.218     6 C    1.217     1 Ni   0.665
     8   6 C    3.945 --     9 C    1.369     6 C    1.363    29 H    0.970
     9   6 C    3.916 --     8 C    1.369    12 N    1.203    10 C    1.177
    10   6 C    3.958 --    11 C    1.643     9 C    1.177    30 H    0.975
    11   6 C    3.961 --    10 C    1.643    13 C    1.186    31 H    0.973
    12   7 N    3.410 --    13 C    1.243     9 C    1.203     1 Ni   0.661
    13   6 C    3.904 --    14 C    1.266    12 N    1.243    11 C    1.186
    14   6 C    3.949 --    15 C    1.266    13 C    1.266    76 C    1.180
    15   6 C    3.904 --    14 C    1.266    19 N    1.243    16 C    1.186
    16   6 C    3.961 --    17 C    1.643    15 C    1.186    32 H    0.973
    17   6 C    3.958 --    16 C    1.643    18 C    1.177    33 H    0.975
    18   6 C    3.916 --    20 C    1.369    19 N    1.203    17 C    1.177
    19   7 N    3.410 --    15 C    1.243    18 C    1.203     1 Ni   0.661
    20   6 C    3.945 --    18 C    1.369    21 C    1.363    34 H    0.970
    21   6 C    3.921 --    20 C    1.363    25 N    1.217    22 C    1.171
    22   6 C    3.962 --    23 C    1.655    21 C    1.171    35 H    0.975
    23   6 C    3.960 --    22 C    1.655    24 C    1.170    36 H    0.975
    24   6 C    3.923 --     2 C    1.365    25 N    1.218    23 C    1.170
    25   7 N    3.406 --    24 C    1.218    21 C    1.217     1 Ni   0.665
    26   1 H    1.000 --     2 C    0.970
    27   1 H    0.998 --     4 C    0.975
    28   1 H    0.998 --     5 C    0.975
    29   1 H    1.000 --     8 C    0.970
    30   1 H    0.997 --    10 C    0.975
    31   1 H    1.002 --    11 C    0.973
    32   1 H    1.002 --    16 C    0.973
    33   1 H    0.997 --    17 C    0.975
    34   1 H    1.000 --    20 C    0.970
    35   1 H    0.998 --    22 C    0.975
    36   1 H    0.998 --    23 C    0.975
    37  28 Ni   3.012 --    43 N    0.665    61 N    0.665    48 N    0.661
                            55 N    0.661
    38   6 C    3.940 --    39 C    1.365    60 C    1.365    62 H    0.970
    39   6 C    3.923 --    38 C    1.365    43 N    1.218    40 C    1.170
    40   6 C    3.960 --    41 C    1.655    39 C    1.170    63 H    0.975
    41   6 C    3.962 --    40 C    1.655    42 C    1.171    64 H    0.975
    42   6 C    3.921 --    44 C    1.363    43 N    1.217    41 C    1.171
    43   7 N    3.406 --    39 C    1.218    42 C    1.217    37 Ni   0.665
    44   6 C    3.945 --    45 C    1.369    42 C    1.363    65 H    0.970
    45   6 C    3.916 --    44 C    1.369    48 N    1.203    46 C    1.177
    46   6 C    3.958 --    47 C    1.643    45 C    1.177    66 H    0.975
    47   6 C    3.961 --    46 C    1.643    49 C    1.186    67 H    0.973
    48   7 N    3.410 --    49 C    1.243    45 C    1.203    37 Ni   0.661
    49   6 C    3.904 --    50 C    1.266    48 N    1.243    47 C    1.186
    50   6 C    3.949 --    51 C    1.266    49 C    1.266    78 C    1.180
    51   6 C    3.904 --    50 C    1.266    55 N    1.243    52 C    1.186
    52   6 C    3.961 --    53 C    1.643    51 C    1.186    68 H    0.973
    53   6 C    3.958 --    52 C    1.643    54 C    1.177    69 H    0.975
    54   6 C    3.916 --    56 C    1.369    55 N    1.203    53 C    1.177
    55   7 N    3.410 --    51 C    1.243    54 C    1.203    37 Ni   0.661
    56   6 C    3.945 --    54 C    1.369    57 C    1.363    70 H    0.970
    57   6 C    3.921 --    56 C    1.363    61 N    1.217    58 C    1.171
    58   6 C    3.962 --    59 C    1.655    57 C    1.171    71 H    0.975
    59   6 C    3.960 --    58 C    1.655    60 C    1.170    72 H    0.975
    60   6 C    3.923 --    38 C    1.365    61 N    1.218    59 C    1.170
    61   7 N    3.406 --    60 C    1.218    57 C    1.217    37 Ni   0.665
    62   1 H    1.000 --    38 C    0.970
    63   1 H    0.998 --    40 C    0.975
    64   1 H    0.998 --    41 C    0.975
    65   1 H    1.000 --    44 C    0.970
    66   1 H    0.997 --    46 C    0.975
    67   1 H    1.002 --    47 C    0.973
    68   1 H    1.002 --    52 C    0.973
    69   1 H    0.997 --    53 C    0.975
    70   1 H    1.000 --    56 C    0.970
    71   1 H    0.998 --    58 C    0.975
    72   1 H    0.998 --    59 C    0.975
    73   6 C    3.928 --    74 C    2.381    77 C    1.326    76 C    0.191
    74   6 C    3.928 --    73 C    2.381    75 C    1.326    78 C    0.191
    75   6 C    3.939 --    76 C    2.462    74 C    1.326
    76   6 C    3.892 --    75 C    2.462    14 C    1.180    73 C    0.191
    77   6 C    3.939 --    78 C    2.462    73 C    1.326
    78   6 C    3.892 --    77 C    2.462    50 C    1.180    74 C    0.191
 ---------------------------------------------------------------------------

           -------------------------------------------------
          | TOTAL ENERGY             -142.772237970021 Eh   |
          | GRADIENT NORM               0.000788563476 Eh/α |
          | HOMO-LUMO GAP               1.336714595550 eV   |
           -------------------------------------------------

 * finished run on 2022/07/30 at 02:10:54.026
