   * xtb version 6.5.1 (b24c23e) compiled by 'conda@728c89f4b128' on 2022-07-12
          program call               : xtb Co_NMA_C6_3.xyz --gfn 1 --opt -T 48

   ID    Z sym.   atoms
    1   27 Co     1, 67, 145
    2    6 C      2-6, 8-12, 14-19, 21-26, 28-32, 34-40, 68-72, 74-78, 80-85,
                  87-92, 94-98, 100-106, 133-144, 146-150, 152-156, 158-163,
                  165-170, 172-176, 178-184
    3    7 N      7, 13, 20, 27, 33, 41, 73, 79, 86, 93, 99, 107, 151, 157,
                  164, 171, 177, 185
    4    1 H      42-66, 108-132, 186-209

          :  Hamiltonian                  GFN1-xTB          :
 * total energy  :  -325.9894720 Eh     change        0.3483029E-07 Eh
 * total energy  :  -342.5488221 Eh     change       -0.1655935E+02 Eh
 * total energy  :  -344.5710383 Eh     change       -0.2022216E+01 Eh
 * total energy  :  -345.8774330 Eh     change       -0.1306395E+01 Eh
 * total energy  :  -346.5422525 Eh     change       -0.6648194E+00 Eh
 * total energy  :  -346.9208240 Eh     change       -0.3785715E+00 Eh
 * total energy  :  -347.1760492 Eh     change       -0.2552252E+00 Eh
 * total energy  :  -347.3762032 Eh     change       -0.2001540E+00 Eh
 * total energy  :  -347.5430080 Eh     change       -0.1668049E+00 Eh
 * total energy  :  -347.6768700 Eh     change       -0.1338620E+00 Eh
 * total energy  :  -348.6392010 Eh     change       -0.2646580E-04 Eh
 * total energy  :  -348.6392235 Eh     change       -0.2253502E-04 Eh
 * total energy  :  -348.6392391 Eh     change       -0.1556606E-04 Eh
 * total energy  :  -348.6392520 Eh     change       -0.1289164E-04 Eh
 * total energy  :  -348.6392640 Eh     change       -0.1199882E-04 Eh
 * total energy  :  -348.6392750 Eh     change       -0.1106627E-04 Eh
 * total energy  :  -348.6392840 Eh     change       -0.8994158E-05 Eh
 * total energy  :  -348.6392913 Eh     change       -0.7266175E-05 Eh
 * total energy  :  -348.6392961 Eh     change       -0.4821924E-05 Eh
   *** GEOMETRY OPTIMIZATION CONVERGED AFTER 88 ITERATIONS ***

 final structure:
================
209
 xtb: 6.5.1 (b24c23e)
Co          33.55171371383705        0.04599264308913       -0.02235248658839
C           30.18654606519808        0.15377674989220       -0.13830174035402
C           30.82932667956682        0.81782977566898        0.88532947672516
C           30.15915744665109        1.51978203753428        1.93653501539371
C           31.11265307839775        2.19647205679565        2.62089677737817
C           32.36179389147473        1.92210715677247        1.97329712109304
N           32.18534412207775        1.01810624358992        0.95803899288776
C           33.55197775345773        2.58748294294446        2.24805902822906
C           33.55487153308933        3.68943063845999        3.23203629317832
C           32.70155656540310        4.78701087748545        3.08162321737464
C           32.71417683433080        5.82296135327098        3.99548012879855
C           33.57752079401008        5.78910752480896        5.09803875899329
N           33.51479146129720        6.82330543379678        6.01826439014396
C           34.65774211566094        7.09624715730035        6.87901005469540
C           34.42076200148414        4.68596331715123        5.26285752819687
C           34.41200230480794        3.65966435842883        4.33441999311218
C           34.73697335454665        2.24821040427285        1.60925169800622
C           35.97545991584175        2.94639529916870        1.77857833406220
C           36.92764866011458        2.21330355614981        1.15089708426778
N           34.92076070883019        1.13604403953859        0.82007151149185
C           36.26684086390772        1.07632242930555        0.59415361477895
C           36.93868705611644       -0.02012461756328        0.04427367720030
C           36.24791624762929       -1.10020272989198       -0.51521587238398
C           36.88480914554125       -2.27330390679683       -1.02232986387164
C           35.92646777878792       -2.99028248867077       -1.65942562891081
C           34.71070027919521       -2.24118201050195       -1.55401253838929
N           34.90905713551057       -1.11734547825699       -0.78406959032228
C           33.54389637549873       -2.53695113261546       -2.24534797036072
C           33.53792975343190       -3.65815966004379       -3.20707838007908
C           34.45634540729117       -3.70215663941473       -4.25852080666021
C           34.45386786474684       -4.74449370326580       -5.16877016828421
C           33.53446581865898       -5.78973009868866       -5.03706033468870
N           33.45880974279838       -6.83378570719267       -5.94470173811884
C           34.62897331130636       -7.19387136574527       -6.73374645936575
C           32.60902076627934       -5.74911223286122       -3.98633075968949
C           32.60971237799188       -4.69752284805471       -3.09038723446293
C           32.38125798469727       -1.79564727204064       -2.05938195931388
C           31.16553293125919       -1.99935701426438       -2.79102524419973
C           30.21614396172144       -1.23935735127094       -2.19401607758251
C           30.85588491282829       -0.56316400912964       -1.10749336781284
N           32.19622888357353       -0.85910718738705       -1.07620579783635
H           29.10426549880620        0.19210704579327       -0.17945931109975
H           29.09508857457178        1.49002695226535        2.11012687281484
H           30.99255471519671        2.82850040941574        3.48590618245354
H           32.04222713669436        4.83732212929581        2.22196765986838
H           32.05437659049895        6.67365066129454        3.86077459078058
H           33.10742875109027        7.66750418843287        5.63481438715392
H           35.58182186950487        7.20377988292681        6.29952195243581
H           34.78066376678710        6.29051544810164        7.60407758387545
H           34.46005995777539        8.02298154575216        7.41764418528670
H           35.08422875430136        4.62170279833160        6.11657253054546
H           35.06430411129807        2.80517347037768        4.47873348637654
H           36.09105958507872        3.87806455373308        2.30822808266509
H           37.98531990348931        2.40690579346692        1.07140036953432
H           37.93156047660637       -2.50257886956504       -0.90263339446234
H           36.02477455274789       -3.94060396886820       -2.15857663883881
H           35.16696122705818       -2.89165301914795       -4.37913416510838
H           35.16774261172537       -4.73740301764349       -5.98328199509591
H           32.97477847263976       -7.64320860106013       -5.57613610263440
H           34.84759224503667       -6.40826951989731       -7.45817038601080
H           34.40141950833723       -8.11277624091797       -7.27392472724622
H           35.50839072860735       -7.35433328181393       -6.09975725595808
H           31.88944460267075       -6.55388210722172       -3.87822577762492
H           31.89948016923501       -4.68991987916648       -2.27075834572006
H           31.06404227182438       -2.64244985985612       -3.65020888980079
H           29.17256130052135       -1.13907055538418       -2.44716248462945
Co          65.43758767607997        0.03126598976635       -0.06494487875555
C           68.80383292215059        0.10214491761320       -0.16482095915002
C           68.15854012465601       -1.04025138787354       -0.58990245590820
C           68.82524670369419       -2.22702438850353       -1.03021740925371
C           67.87173853046725       -3.03910279603001       -1.54683357066868
C           66.62634690674459       -2.33707084632168       -1.44034664283226
N           66.80394744156061       -1.14657403221278       -0.78436243817602
C           65.44029756221566       -2.74264211387902       -2.04358295858858
C           65.43696154452611       -3.94988901047796       -2.89479817449324
C           66.31052782593684       -4.06632400995808       -3.98051816559436
C           66.30032603118164       -5.19385453319007       -4.77873148264057
C           65.41846074525844       -6.24846923016673       -4.51017591043069
N           65.48503306624536       -7.38339463829801       -5.30260525132618
C           64.33421508930979       -8.27161242127075       -5.39328858372309
C           64.55295958492073       -6.14400869533212       -3.41703388346840
C           64.56040253224779       -5.00493801381059       -2.63112156123546
C           64.25919172869162       -2.03341621500543       -1.87014367755312
C           63.02639629722106       -2.34100885518142       -2.53014215302220
C           62.07273165913085       -1.56222293089747       -1.96236832147898
N           64.07173249680028       -1.01886257568694       -0.95960304053648
C           62.72705121947086       -0.77656559118727       -0.96544948420349
C           62.05001574770683        0.00083499742380       -0.02022857912998
C           62.73654826866557        0.77740772296512        0.91929055492855
C           62.09493404193826        1.52885048038662        1.95015649115032
C           63.05260194435838        2.30012315332978        2.52152837423786
C           64.27304041181226        2.02931598767749        1.82335393999289
N           64.07711958524773        1.03673952794142        0.88973433537419
C           65.44290699153915        2.76133222761760        1.97328425057798
C           65.45072367432141        3.93893242018697        2.86519422781954
C           64.54126379650978        4.98278194362637        2.68064359516534
C           64.54598702310436        6.09184667906790        3.50847626846455
C           65.45834155596468        6.17596353377877        4.56469411010254
N           65.53599572407305        7.28182113829009        5.39622740981810
C           64.36999851903720        8.13639590077956        5.57469226379490
C           66.37537906388435        5.13383972715863        4.75192662659719
C           66.37272951490800        4.03699013326147        3.91204130490747
C           66.60873202180362        2.41417643812518        1.29783250397225
C           67.82774517180981        3.16685107325947        1.34654741592886
C           68.77797705456140        2.41460003496983        0.74110361000882
C           68.13587972703658        1.20959211587694        0.31345114848194
N           66.79337047320254        1.25029932382127        0.59844247052100
H           69.88668111036556        0.12766815671886       -0.20065404221384
H           69.88714766192345       -2.39759130162195       -0.94938465448322
H           67.99002105915301       -4.02510885302455       -1.96626860941905
H           66.98499157948294       -3.24969631532000       -4.21389967958335
H           66.97713771916251       -5.26692394981221       -5.62354189203890
H           65.91328959708922       -7.20996635923152       -6.20378745819280
H           63.42215034911080       -7.72380146388236       -5.65643320910436
H           64.18261853735463       -8.78523185774517       -4.44299992521758
H           64.54253532724491       -9.01545953506896       -6.16226022042303
H           63.87337487153528       -6.95115387508363       -3.17248432129731
H           63.89148615592998       -4.94101261732114       -1.77971862399406
H           62.91535727887017       -3.05910937841058       -3.32633749432804
H           61.01791813075229       -1.51904370720739       -2.18145426339203
H           61.04574589780118        1.46701935445966        2.19089598037000
H           62.95086012614441        2.99273404558125        3.34120395677044
H           63.83607679000934        4.93559303721386        1.85789604641515
H           63.83932846278176        6.89193566016285        3.32518312793453
H           66.01035819015615        7.08573700380820        6.26923551083815
H           64.16214420457014        8.68247110266981        4.65356096976577
H           64.59634642932900        8.85485676882591        6.36248112926264
H           63.48441424789851        7.55569885581112        5.85714903806281
H           67.08980454530381        5.19221337225205        5.56636965831736
H           67.07631275910406        3.22924194450237        4.08158484567464
H           67.93056684334174        4.14474160324250        1.78843262373797
H           69.82368244730813        2.63499454392541        0.59570980716044
C           42.13592196298573       -0.05405284578293        0.07911166005630
C           40.90601830988361       -0.05404012927881        0.07410680528308
C           39.56408680436821       -0.04780879037881        0.06749812884423
C           38.33895127122285       -0.03849329036728        0.05816970312606
C           43.47768228648775       -0.05043628686067        0.07847178123422
C           44.70307347357448       -0.04379892624191        0.07281886804066
C           58.08210152638976       -0.00890666506403        0.00744859953619
C           56.85217622981811       -0.00991739508615        0.01125237659219
C           55.51016552744439       -0.00763754295637        0.01228851572655
C           54.28466362059981       -0.00386027647880        0.00874857901064
C           59.42424797678970       -0.00680546401021       -0.00025469472879
C           60.64941714263873       -0.00436954366548       -0.00801944439463
Co          49.49306228542891        0.01740113147834       -0.00444400791756
C           46.10277928977499       -0.03267938477472        0.06064994392443
C           46.78884290789771       -1.14258123440176       -0.44457227316525
C           46.13492235996114       -2.30528502230124       -0.95369568384275
C           47.08712367011637       -3.04518417664132       -1.57273463209354
C           48.32197872449982       -2.33570116449559       -1.42843553706014
N           48.13163935022884       -1.19122543520095       -0.68879682476849
C           49.48974407975681       -2.65488063485258       -2.11006204742452
C           49.48534078181087       -3.80619910392216       -3.04048040164899
C           49.25978716616368       -5.10306129418650       -2.57169403174269
C           49.25995853723894       -6.17732393151605       -3.44101738082992
C           49.47845792297556       -5.98437082912270       -4.81093238576796
N           49.41214450730520       -7.08386813389325       -5.65193226846497
C           50.07819195257069       -7.04551411374732       -6.94682608466567
C           49.68909981597314       -4.68641511428621       -5.28607171736288
C           49.70060610691927       -3.61746645745700       -4.40647058810457
C           50.66197285277646       -1.92826436955295       -1.94260727965335
C           51.89985080558125       -2.24018219513962       -2.59035312660523
C           52.85746097449159       -1.49454878542341       -1.98622011193635
N           50.85657402798034       -0.96358153050337       -0.98085821483622
C           52.20245875508965       -0.73419072199381       -0.97077324100544
C           52.88470677501408        0.00577120208257        0.00187490999319
C           52.20378990161586        0.76335096926433        0.96117721758493
C           52.85421409389722        1.51184647276461        1.98802492161491
C           51.90054762736896        2.28176559803415        2.56915260089263
C           50.67423594926738        2.00513462960507        1.88572401286878
N           50.86169856337393        1.01680783340866        0.94837628346101
C           49.49665309836884        2.72249999566378        2.06298853050096
C           49.50395426413893        3.90795566296452        2.94290230049005
C           48.61435303457206        4.01262986577966        4.01481646849353
C           48.62086204412171        5.11909606637172        4.84588140620920
C           49.52324960047993        6.16301939325752        4.61868350011632
N           49.53550584102369        7.31891221412096        5.38132191990116
C           49.00472922440199        7.30257699813863        6.73731996547307
C           50.40842553024200        6.06929237194435        3.53666109065477
C           50.40301146212656        4.95602901523225        2.71941487509399
C           48.31414193329393        2.34910972358931        1.43570135092249
C           47.08162532519288        3.06932786200371        1.53622908078575
C           46.12347601930270        2.28275590195861        0.98562468999739
C           46.77854229130445        1.09741627178914        0.53479147200498
N           48.12390548141531        1.16937225859573        0.75433444391334
H           45.07875237756233       -2.50261025033239       -0.86491808305863
H           46.96596615841614       -3.97474878133466       -2.10432650256746
H           49.10731521052029       -5.26973070966760       -1.51103031671159
H           49.09169706915149       -7.18052900722187       -3.06384669418415
H           49.55808291550236       -7.96080123242997       -5.16673860026317
H           49.56394740768412       -6.35004793167794       -7.61158917366384
H           51.12748827366251       -6.74369069635517       -6.85128674966360
H           50.02842191318139       -8.04412870409474       -7.38073350162429
H           49.84050368868994       -4.50355221763601       -6.34278771142040
H           49.85512164597665       -2.61407353843445       -4.78806553304603
H           52.01779614675479       -2.95926761119674       -3.38443091680356
H           53.91675284558718       -1.46677599305451       -2.18514760933580
H           53.90602417774697        1.45277799397339        2.21745089561902
H           52.00892005236631        2.97431236331157        3.38796399518055
H           47.92371168530869        3.20069362993343        4.21517177404800
H           47.92119282342858        5.16439893047356        5.67134670975747
H           50.40685791461889        7.83006682550796        5.31070898459155
H           49.46279444939254        6.50974263207407        7.33958670364672
H           49.21673341684787        8.26958840777424        7.19332606557614
H           47.92405466857436        7.15708613959982        6.71415834874211
H           51.10085571553878        6.88173086619573        3.34299707027840
H           51.08614154181823        4.90314416841014        1.87879869327883
H           46.97176768686595        4.04912464411570        1.97165539613223
H           45.06668484464468        2.47349450638730        0.88956402460250

          :  Hamiltonian                  GFN1-xTB          :
         :: total energy            -348.639296127210 Eh    ::
         :: gradient norm              0.000561380042 Eh/a0 ::
         :: HOMO-LUMO gap              0.000578318095 eV    ::
         :: SCC energy              -354.287488748558 Eh    ::
         :: repulsion energy           5.826561351193 Eh    ::

    * Orbital Energies and Occupations

         #    Occupation            Energy/Eh            Energy/eV
      -------------------------------------------------------------
         1        2.0000           -0.7816422             -21.2696
       ...           ...                  ...                  ...
       312        2.0000           -0.3832925             -10.4299
       313        2.0000           -0.3832783             -10.4295
       314        2.0000           -0.3827290             -10.4146
       315        1.9999           -0.3805694             -10.3558
       316        1.9999           -0.3803740             -10.3505
       317        1.9998           -0.3801841             -10.3453
       318        1.9998           -0.3801837             -10.3453
       319        1.9998           -0.3800998             -10.3430
       320        1.9998           -0.3800981             -10.3430
       321        1.9975           -0.3775167             -10.2728
       322        1.5145           -0.3722010             -10.1281
       323        1.1710           -0.3713966             -10.1062
       324        1.1640           -0.3713819             -10.1058 (HOMO)
       325        1.1539           -0.3713606             -10.1052 (LUMO)
       326                         -0.3352212              -9.1218
       327                         -0.3249169              -8.8414
       328                         -0.3194454              -8.6926
       329                         -0.3178607              -8.6494
       330                         -0.3172850              -8.6338
       331                         -0.3172063              -8.6316
       332                         -0.2980638              -8.1107
       333                         -0.2876646              -7.8278
       334                         -0.2844015              -7.7390
       335                         -0.2826108              -7.6902
       ...                                ...                  ...
       703                          1.5820508              43.0498
      -------------------------------------------------------------
                  HL-Gap            0.0000213 Eh            0.0006 eV

Wiberg/Mayer (AO) data.
largest (>0.10) Wiberg bond orders for each atom

     #   Z sym  total        # sym  WBO       # sym  WBO       # sym  WBO
 ---------------------------------------------------------------------------
     1  27 Co   3.028 --    41 N    0.634     7 N    0.634    20 N    0.629
                            27 N    0.629
     2   6 C    3.923 --    40 C    1.365     3 C    1.363    42 H    0.970
     3   6 C    3.926 --     2 C    1.363     7 N    1.200     4 C    1.178
     4   6 C    3.958 --     5 C    1.644     3 C    1.178    43 H    0.975
     5   6 C    3.963 --     4 C    1.644     6 C    1.179    44 H    0.973
     6   6 C    3.918 --     8 C    1.310     7 N    1.216     5 C    1.179
     7   7 N    3.341 --     6 C    1.216     3 C    1.200     1 Co   0.634
     8   6 C    3.928 --    17 C    1.327     6 C    1.310     9 C    1.041
     9   6 C    3.985 --    16 C    1.380    10 C    1.370     8 C    1.041
    10   6 C    3.985 --    11 C    1.479     9 C    1.370    45 H    0.972
    11   6 C    3.988 --    10 C    1.479    12 C    1.342    46 H    0.971
    12   6 C    3.950 --    15 C    1.351    11 C    1.342    13 N    1.113
    13   7 N    3.180 --    12 C    1.113    14 C    0.971    47 H    0.930
    14   6 C    3.967 --    50 H    0.990    49 H    0.986    48 H    0.984
                            13 N    0.971
    15   6 C    3.988 --    16 C    1.467    12 C    1.351    51 H    0.970
    16   6 C    3.985 --    15 C    1.467     9 C    1.380    52 H    0.972
    17   6 C    3.916 --     8 C    1.327    20 N    1.195    18 C    1.184
    18   6 C    3.959 --    19 C    1.633    17 C    1.184    53 H    0.973
    19   6 C    3.959 --    18 C    1.633    21 C    1.193    54 H    0.974
    20   7 N    3.342 --    21 C    1.232    17 C    1.195     1 Co   0.629
    21   6 C    3.904 --    22 C    1.254    20 N    1.232    19 C    1.193
    22   6 C    3.927 --    21 C    1.254    23 C    1.252   136 C    1.201
    23   6 C    3.904 --    22 C    1.252    27 N    1.234    24 C    1.193
    24   6 C    3.959 --    25 C    1.632    23 C    1.193    55 H    0.974
    25   6 C    3.958 --    24 C    1.632    26 C    1.184    56 H    0.973
    26   6 C    3.916 --    28 C    1.329    27 N    1.193    25 C    1.184
    27   7 N    3.342 --    23 C    1.234    26 C    1.193     1 Co   0.629
    28   6 C    3.928 --    26 C    1.329    37 C    1.308    29 C    1.042
    29   6 C    3.985 --    30 C    1.380    36 C    1.370    28 C    1.042
    30   6 C    3.985 --    31 C    1.467    29 C    1.380    57 H    0.972
    31   6 C    3.988 --    30 C    1.467    32 C    1.350    58 H    0.970
    32   6 C    3.950 --    31 C    1.350    35 C    1.342    33 N    1.113
    33   7 N    3.181 --    32 C    1.113    34 C    0.971    59 H    0.930
    34   6 C    3.967 --    61 H    0.990    60 H    0.986    62 H    0.984
                            33 N    0.971
    35   6 C    3.988 --    36 C    1.479    32 C    1.342    63 H    0.971
    36   6 C    3.985 --    35 C    1.479    29 C    1.370    64 H    0.972
    37   6 C    3.918 --    28 C    1.308    41 N    1.218    38 C    1.180
    38   6 C    3.963 --    39 C    1.644    37 C    1.180    65 H    0.973
    39   6 C    3.957 --    38 C    1.644    40 C    1.177    66 H    0.975
    40   6 C    3.926 --     2 C    1.365    41 N    1.198    39 C    1.177
    41   7 N    3.341 --    37 C    1.218    40 C    1.198     1 Co   0.634
    42   1 H    1.000 --     2 C    0.970
    43   1 H    0.998 --     4 C    0.975
    44   1 H    1.005 --     5 C    0.973
    45   1 H    1.006 --    10 C    0.972
    46   1 H    0.999 --    11 C    0.971
    47   1 H    0.965 --    13 N    0.930
    48   1 H    1.003 --    14 C    0.984
    49   1 H    1.012 --    14 C    0.986
    50   1 H    1.007 --    14 C    0.990
    51   1 H    1.001 --    15 C    0.970
    52   1 H    1.006 --    16 C    0.972
    53   1 H    1.005 --    18 C    0.973
    54   1 H    1.001 --    19 C    0.974
    55   1 H    1.001 --    24 C    0.974
    56   1 H    1.005 --    25 C    0.973
    57   1 H    1.006 --    30 C    0.972
    58   1 H    1.001 --    31 C    0.970
    59   1 H    0.965 --    33 N    0.930
    60   1 H    1.012 --    34 C    0.986
    61   1 H    1.007 --    34 C    0.990
    62   1 H    1.003 --    34 C    0.984
    63   1 H    0.999 --    35 C    0.971
    64   1 H    1.005 --    36 C    0.972
    65   1 H    1.005 --    38 C    0.973
    66   1 H    0.998 --    39 C    0.975
    67  27 Co   3.030 --   107 N    0.635    73 N    0.634    86 N    0.630
                            93 N    0.629
    68   6 C    3.923 --   106 C    1.365    69 C    1.363   108 H    0.970
    69   6 C    3.926 --    68 C    1.363    73 N    1.200    70 C    1.178
    70   6 C    3.958 --    71 C    1.644    69 C    1.178   109 H    0.975
    71   6 C    3.963 --    70 C    1.644    72 C    1.179   110 H    0.973
    72   6 C    3.918 --    74 C    1.310    73 N    1.216    71 C    1.179
    73   7 N    3.341 --    72 C    1.216    69 C    1.200    67 Co   0.634
    74   6 C    3.929 --    83 C    1.327    72 C    1.310    75 C    1.042
    75   6 C    3.985 --    82 C    1.380    76 C    1.370    74 C    1.042
    76   6 C    3.985 --    77 C    1.479    75 C    1.370   111 H    0.972
    77   6 C    3.988 --    76 C    1.479    78 C    1.342   112 H    0.971
    78   6 C    3.950 --    81 C    1.351    77 C    1.342    79 N    1.113
    79   7 N    3.180 --    78 C    1.113    80 C    0.971   113 H    0.930
    80   6 C    3.967 --   116 H    0.990   115 H    0.986   114 H    0.984
                            79 N    0.971
    81   6 C    3.988 --    82 C    1.467    78 C    1.351   117 H    0.970
    82   6 C    3.985 --    81 C    1.467    75 C    1.380   118 H    0.972
    83   6 C    3.916 --    74 C    1.327    86 N    1.195    84 C    1.184
    84   6 C    3.959 --    85 C    1.632    83 C    1.184   119 H    0.973
    85   6 C    3.959 --    84 C    1.632    87 C    1.193   120 H    0.974
    86   7 N    3.342 --    87 C    1.232    83 C    1.195    67 Co   0.630
    87   6 C    3.904 --    88 C    1.254    86 N    1.232    85 C    1.193
    88   6 C    3.927 --    87 C    1.254    89 C    1.252   144 C    1.200
    89   6 C    3.904 --    88 C    1.252    93 N    1.234    90 C    1.193
    90   6 C    3.959 --    91 C    1.632    89 C    1.193   121 H    0.974
    91   6 C    3.958 --    90 C    1.632    92 C    1.184   122 H    0.973
    92   6 C    3.916 --    94 C    1.329    93 N    1.193    91 C    1.184
    93   7 N    3.342 --    89 C    1.234    92 C    1.193    67 Co   0.629
    94   6 C    3.929 --    92 C    1.329   103 C    1.308    95 C    1.042
    95   6 C    3.985 --    96 C    1.380   102 C    1.370    94 C    1.042
    96   6 C    3.985 --    97 C    1.467    95 C    1.380   123 H    0.972
    97   6 C    3.988 --    96 C    1.467    98 C    1.351   124 H    0.970
    98   6 C    3.950 --    97 C    1.351   101 C    1.342    99 N    1.113
    99   7 N    3.180 --    98 C    1.113   100 C    0.971   125 H    0.930
   100   6 C    3.967 --   127 H    0.990   126 H    0.986   128 H    0.984
                            99 N    0.971
   101   6 C    3.988 --   102 C    1.479    98 C    1.342   129 H    0.971
   102   6 C    3.985 --   101 C    1.479    95 C    1.370   130 H    0.972
   103   6 C    3.918 --    94 C    1.308   107 N    1.218   104 C    1.180
   104   6 C    3.963 --   105 C    1.644   103 C    1.180   131 H    0.973
   105   6 C    3.957 --   104 C    1.644   106 C    1.177   132 H    0.975
   106   6 C    3.926 --    68 C    1.365   107 N    1.198   105 C    1.177
   107   7 N    3.342 --   103 C    1.218   106 C    1.198    67 Co   0.635
   108   1 H    1.000 --    68 C    0.970
   109   1 H    0.998 --    70 C    0.975
   110   1 H    1.005 --    71 C    0.973
   111   1 H    1.006 --    76 C    0.972
   112   1 H    0.999 --    77 C    0.971
   113   1 H    0.965 --    79 N    0.930
   114   1 H    1.003 --    80 C    0.984
   115   1 H    1.012 --    80 C    0.986
   116   1 H    1.007 --    80 C    0.990
   117   1 H    1.001 --    81 C    0.970
   118   1 H    1.006 --    82 C    0.972
   119   1 H    1.005 --    84 C    0.973
   120   1 H    1.001 --    85 C    0.974
   121   1 H    1.001 --    90 C    0.974
   122   1 H    1.005 --    91 C    0.973
   123   1 H    1.006 --    96 C    0.972
   124   1 H    1.001 --    97 C    0.970
   125   1 H    0.965 --    99 N    0.930
   126   1 H    1.012 --   100 C    0.986
   127   1 H    1.007 --   100 C    0.990
   128   1 H    1.003 --   100 C    0.984
   129   1 H    0.999 --   101 C    0.971
   130   1 H    1.005 --   102 C    0.972
   131   1 H    1.005 --   104 C    0.973
   132   1 H    0.998 --   105 C    0.975
   133   6 C    3.919 --   134 C    2.347   137 C    1.349   136 C    0.188
   134   6 C    3.917 --   133 C    2.347   135 C    1.348   138 C    0.187
   135   6 C    3.928 --   136 C    2.430   134 C    1.348
   136   6 C    3.881 --   135 C    2.430    22 C    1.201   133 C    0.188
   137   6 C    3.924 --   138 C    2.427   133 C    1.349
   138   6 C    3.882 --   137 C    2.427   146 C    1.205   134 C    0.187
   139   6 C    3.917 --   140 C    2.348   143 C    1.348   142 C    0.188
   140   6 C    3.919 --   139 C    2.348   141 C    1.349   144 C    0.188
   141   6 C    3.924 --   142 C    2.428   140 C    1.349
   142   6 C    3.883 --   141 C    2.428   166 C    1.204   139 C    0.188
   143   6 C    3.928 --   144 C    2.431   139 C    1.348
   144   6 C    3.881 --   143 C    2.431    88 C    1.200   140 C    0.188
   145  27 Co   3.000 --   151 N    0.624   171 N    0.623   164 N    0.623
                           185 N    0.622
   146   6 C    3.913 --   147 C    1.251   184 C    1.248   138 C    1.205
   147   6 C    3.905 --   146 C    1.251   151 N    1.236   148 C    1.193
   148   6 C    3.960 --   149 C    1.632   147 C    1.193   186 H    0.974
   149   6 C    3.959 --   148 C    1.632   150 C    1.186   187 H    0.972
   150   6 C    3.912 --   152 C    1.322   151 N    1.197   149 C    1.186
   151   7 N    3.334 --   147 C    1.236   150 C    1.197   145 Co   0.624
   152   6 C    3.920 --   150 C    1.322   161 C    1.322   153 C    1.030
   153   6 C    3.984 --   160 C    1.384   154 C    1.374   152 C    1.030
   154   6 C    3.987 --   155 C    1.476   153 C    1.374   188 H    0.973
   155   6 C    3.988 --   154 C    1.476   156 C    1.344   189 H    0.971
   156   6 C    3.951 --   159 C    1.352   155 C    1.344   157 N    1.112
   157   7 N    3.181 --   156 C    1.112   158 C    0.971   190 H    0.930
   158   6 C    3.967 --   193 H    0.990   191 H    0.986   192 H    0.984
                           157 N    0.971
   159   6 C    3.988 --   160 C    1.464   156 C    1.352   194 H    0.970
   160   6 C    3.987 --   159 C    1.464   153 C    1.384   195 H    0.973
   161   6 C    3.912 --   152 C    1.322   164 N    1.197   162 C    1.186
   162   6 C    3.959 --   163 C    1.632   161 C    1.186   196 H    0.973
   163   6 C    3.960 --   162 C    1.632   165 C    1.194   197 H    0.974
   164   7 N    3.335 --   165 C    1.237   161 C    1.197   145 Co   0.623
   165   6 C    3.905 --   166 C    1.249   164 N    1.237   163 C    1.194
   166   6 C    3.913 --   167 C    1.250   165 C    1.249   142 C    1.204
   167   6 C    3.905 --   166 C    1.250   171 N    1.234   168 C    1.196
   168   6 C    3.957 --   169 C    1.628   167 C    1.196   198 H    0.974
   169   6 C    3.960 --   168 C    1.628   170 C    1.188   199 H    0.973
   170   6 C    3.913 --   172 C    1.315   171 N    1.200   169 C    1.188
   171   7 N    3.334 --   167 C    1.234   170 C    1.200   145 Co   0.623
   172   6 C    3.921 --   181 C    1.318   170 C    1.315   173 C    1.045
   173   6 C    3.984 --   174 C    1.378   180 C    1.367   172 C    1.045
   174   6 C    3.984 --   175 C    1.468   173 C    1.378   200 H    0.972
   175   6 C    3.988 --   174 C    1.468   176 C    1.349   201 H    0.970
   176   6 C    3.949 --   175 C    1.349   179 C    1.340   177 N    1.115
   177   7 N    3.182 --   176 C    1.115   178 C    0.971   202 H    0.930
   178   6 C    3.967 --   204 H    0.990   205 H    0.986   203 H    0.983
                           177 N    0.971
   179   6 C    3.987 --   180 C    1.481   176 C    1.340   206 H    0.971
   180   6 C    3.985 --   179 C    1.481   173 C    1.367   207 H    0.972
   181   6 C    3.913 --   172 C    1.318   185 N    1.198   182 C    1.188
   182   6 C    3.959 --   183 C    1.628   181 C    1.188   208 H    0.973
   183   6 C    3.958 --   182 C    1.628   184 C    1.196   209 H    0.974
   184   6 C    3.905 --   146 C    1.248   185 N    1.236   183 C    1.196
   185   7 N    3.334 --   184 C    1.236   181 C    1.198   145 Co   0.622
   186   1 H    1.002 --   148 C    0.974
   187   1 H    1.005 --   149 C    0.972
   188   1 H    1.004 --   154 C    0.973
   189   1 H    0.999 --   155 C    0.971
   190   1 H    0.965 --   157 N    0.930
   191   1 H    1.012 --   158 C    0.986
   192   1 H    1.003 --   158 C    0.984
   193   1 H    1.007 --   158 C    0.990
   194   1 H    1.001 --   159 C    0.970
   195   1 H    1.004 --   160 C    0.973
   196   1 H    1.005 --   162 C    0.973
   197   1 H    1.002 --   163 C    0.974
   198   1 H    1.001 --   168 C    0.974
   199   1 H    1.005 --   169 C    0.973
   200   1 H    1.006 --   174 C    0.972
   201   1 H    1.001 --   175 C    0.970
   202   1 H    0.965 --   177 N    0.930
   203   1 H    1.003 --   178 C    0.983
   204   1 H    1.007 --   178 C    0.990
   205   1 H    1.011 --   178 C    0.986
   206   1 H    0.999 --   179 C    0.971
   207   1 H    1.005 --   180 C    0.972
   208   1 H    1.005 --   182 C    0.973
   209   1 H    1.001 --   183 C    0.974
 ---------------------------------------------------------------------------

           -------------------------------------------------
          | TOTAL ENERGY             -348.639296127210 Eh   |
          | GRADIENT NORM               0.000561380042 Eh/α |
          | HOMO-LUMO GAP               0.000578318095 eV   |
           -------------------------------------------------

 * finished run on 2022/07/29 at 22:44:57.130
