   * xtb version 6.5.1 (b24c23e) compiled by 'conda@728c89f4b128' on 2022-07-12
          program call               : xtb H_C10_5.xyz --gfn 1 --opt -T 48

   ID    Z sym.   atoms
    1    6 C      1-5, 7-10, 12-17, 19-23, 38-42, 44-47, 49-54, 56-60,
                  75-119, 121-124, 126-131, 133-137, 151-155, 157-160,
                  162-167, 169-173, 187-191, 193-196, 198-203, 205-209
    2    7 N      6, 11, 18, 24, 43, 48, 55, 61, 120, 125, 132, 138, 156,
                  161, 168, 174, 192, 197, 204, 210
    3    1 H      25-37, 62-74, 139-150, 175-186, 211-222

          :  Hamiltonian                  GFN1-xTB          :
 * total energy  :  -381.1190535 Eh     change       -0.1533806E-08 Eh
 * total energy  :  -389.8161746 Eh     change       -0.8697121E+01 Eh
 * total energy  :  -390.6287595 Eh     change       -0.8125849E+00 Eh
 * total energy  :  -391.1599252 Eh     change       -0.5311657E+00 Eh
 * total energy  :  -391.3834985 Eh     change       -0.2235734E+00 Eh
 * total energy  :  -391.4572216 Eh     change       -0.7372308E-01 Eh
 * total energy  :  -391.4886582 Eh     change       -0.3143660E-01 Eh
 * total energy  :  -391.5040263 Eh     change       -0.1536808E-01 Eh
 * total energy  :  -391.5105185 Eh     change       -0.6492258E-02 Eh
 * total energy  :  -391.5130846 Eh     change       -0.2566096E-02 Eh
 * total energy  :  -391.5587073 Eh     change       -0.4727323E-04 Eh
 * total energy  :  -391.5586942 Eh     change        0.1314883E-04 Eh
 * total energy  :  -391.5587338 Eh     change       -0.3962617E-04 Eh
 * total energy  :  -391.5587105 Eh     change        0.2328802E-04 Eh
 * total energy  :  -391.5587367 Eh     change       -0.2617052E-04 Eh
 * total energy  :  -391.5587248 Eh     change        0.1188165E-04 Eh
 * total energy  :  -391.5587389 Eh     change       -0.1405942E-04 Eh
 * total energy  :  -391.5587365 Eh     change        0.2400045E-05 Eh
 * total energy  :  -391.5587415 Eh     change       -0.4967148E-05 Eh
   *** GEOMETRY OPTIMIZATION CONVERGED AFTER 214 ITERATIONS ***

 final structure:
================
222
 xtb: 6.5.1 (b24c23e)
C           11.60947893408415       -0.36380775916825       -0.18420082540458
C           12.42346007607645       -1.48728799258253       -0.18978163884800
C           11.99735480142189       -2.84674746257183       -0.28472432253721
C           13.10571385571125       -3.64124651644813       -0.26370246739883
C           14.25172400065179       -2.79754336257913       -0.15513194280142
N           13.78738868530068       -1.50995061145239       -0.11044575226258
C           15.58081385692175       -3.18788606632715       -0.11761325717914
C           16.68549132550855       -2.33980281318612       -0.03261925938809
C           18.06854456434398       -2.72861081494086       -0.06212641186032
C           18.72419165620597       -1.55702822935818        0.02304380443178
N           16.60169273735764       -0.98643938367096        0.07189374789320
C           17.85384216284956       -0.42146388173218        0.11632102841880
C           18.13528786743265        0.89072964040795        0.23961491589281
C           17.38372298539346        2.03072316219974        0.31187942029801
C           17.80158560805669        3.38329803120427        0.47857864747057
C           16.69026535173094        4.17979377160799        0.46723322273373
C           15.55104410342961        3.34145188905874        0.29662368716769
N           16.00945751386010        2.06531085930127        0.20568687353972
C           14.20455198562933        3.69146424767189        0.23179920059145
C           13.14778907891402        2.80202120488635        0.09441804285023
C           11.75140913228857        3.20433832879449        0.02910551738832
C           11.03294186086321        2.07016003051664       -0.08797281639592
C           11.99034748394597        0.97270222872282       -0.09190518945919
N           13.24915038606968        1.44953364227943        0.01482567139687
H           10.54437740450987       -0.55932906912498       -0.25932737808725
H           10.96724739246052       -3.15733812594336       -0.36006731999993
H           13.14530401189071       -4.71764069476839       -0.31864491909680
H           14.37776430125919       -0.68932701588700       -0.03451248215307
H           15.77549041349129       -4.25304841764580       -0.17797147378206
H           18.46255819176101       -3.72716527084551       -0.14041658916157
H           20.14116701830257       -1.40021073083355        0.01684644349689
H           18.82939347741875        3.68961149214921        0.59010677743136
H           16.64981016996632        5.25275114156107        0.56917287823851
H           15.41033495818509        1.25541302349135        0.09036463389200
H           13.96994066672478        4.74795875494083        0.30249290959645
H           11.40421613754196        4.22501220272804        0.06965911523321
H            9.96319480177161        1.95179114660379       -0.16417763558959
C          106.47893018653998        0.30883233497309       -0.20884311645151
C          105.67427191066298        1.42744612039351       -0.37041412980169
C          106.11651634083171        2.75745276234479       -0.64275109978185
C          105.01756074591123        3.56007978312162       -0.73431190321482
C          103.86143017181490        2.75124067624644       -0.52127919315840
N          104.30988879301759        1.47597438525578       -0.30383681343364
C          102.53617307487956        3.15936138056405       -0.54104189562553
C          101.42265357878613        2.34272775639637       -0.35059676495415
C          100.03905015882005        2.72134608451501       -0.43237133492867
C           99.37687089849751        1.57468220625173       -0.20130603594909
N          101.50062495641704        1.01287141588960       -0.07171120133337
C          100.24472684583525        0.45602235115979        0.04067151881888
C          100.00117333276178       -0.82936213945035        0.32655102512691
C          100.71592670351671       -1.97031255309320        0.55165743109760
C          100.27754672922536       -3.28343876833275        0.88844703180210
C          101.37888271889769       -4.08859951941378        0.98991170488948
C          102.53046607947378       -3.29463719209095        0.72255755037825
N          102.08899284066659       -2.03523197597087        0.46100673789108
C          103.87489309954380       -3.65672989519323        0.71730750321792
C          104.93503436645589       -2.79332331608720        0.47448977289639
C          106.33136918809178       -3.19929830373684        0.47542439310152
C          107.05121616186493       -2.08973617230333        0.21563487295286
C          106.09466363211975       -1.00315538986722        0.05793833213920
N          104.83488497899540       -1.46303535857485        0.21631037925361
H          107.54563651290630        0.48820747048160       -0.30156846304049
H          107.15056546934230        3.04379323195166       -0.75235674938261
H          104.99102998487285        4.61995085599071       -0.93206613748767
H          103.70786064494919        0.68065310279813       -0.12316721104562
H          102.35528557657891        4.20972446199259       -0.74108854509395
H           99.64477027870750        3.70134930287634       -0.63865833574905
H           97.59049035787257        1.42190169049666       -0.19996885654263
H           99.24505529775413       -3.55987913479657        1.02983676359694
H          101.40255054232780       -5.13960267067881        1.23072799651910
H          102.70185489220016       -1.25540582390834        0.24878905580920
H          104.10494175697286       -4.69536671362615        0.92773644199485
H          106.67808256615095       -4.20519627636460        0.65393929570405
H          108.12166677019235       -1.98180472546445        0.13419104293745
C           21.28188554439977       -1.27396797857680        0.00330728352436
C           22.48588682966871       -1.12748127085505       -0.01929143697796
C           23.83211260156124       -0.97155051743917       -0.03908365411756
C           25.05088462810295       -0.83321042348678       -0.05438762214496
C           26.38382977453580       -0.69080385633619       -0.06752554900720
C           27.60862392585697       -0.56784637723497       -0.07636432817281
C           28.94104686479127       -0.44960952011288       -0.08206037100734
C           30.16787515579935       -0.35259475773703       -0.08264208241386
C           31.50750100845217       -0.26718857634271       -0.07936911537878
C           32.73057516987743       -0.20347324821715       -0.07314203525923
C           42.51167977368063        0.07094142746633        0.00740999156008
C           43.73704934385780        0.08974962626344        0.01133350379369
C           45.07745368161852        0.10616794474084        0.01461485535961
C           46.30967760012631        0.10998674884912        0.01545247953271
C           47.64406837923535        0.10918569091406        0.01500342674431
C           48.87796362223944        0.10206514468841        0.01439465260565
C           50.21229089895007        0.09157768825360        0.01302980524199
C           51.44448084368977        0.07829661941573        0.01032398289677
C           52.78487357978079        0.06486928893914        0.00846856836958
C           54.01032136025772        0.04948873654175        0.00660289138549
C           63.79221933889836       -0.05953165365740        0.01385599842034
C           65.01768987817799       -0.07324312609986        0.01695687077032
C           66.35808682044177       -0.08471860010573        0.01981511923984
C           67.59028735945635       -0.09536840736933        0.02220237712296
C           68.92460681466470       -0.10288584614722        0.02341193619083
C           70.15848777088041       -0.10700796699947        0.02302783217944
C           71.49283457406587       -0.10463772970482        0.02148675014635
C           72.72504512526980       -0.09750397538321        0.01819219297496
C           74.06537859914899       -0.07881619071459        0.01222274799474
C           75.29070076060977       -0.05839758215952        0.00450813814760
C           85.07048583947838        0.21446096930505       -0.08973069202720
C           86.29357645210996        0.27615039646770       -0.10289959497520
C           87.63321582332614        0.36006830417965       -0.11601210702550
C           88.86014264238888        0.45538614296854       -0.12753184023556
C           90.19254081092177        0.57322422157746       -0.13992101910629
C           91.41730230287079        0.69623135604319       -0.15154482276258
C           92.75000802014030        0.84046189012747       -0.16294519117091
C           93.96839334965955        0.98248975689209       -0.17278658954806
C           95.31319875225476        1.14342377853795       -0.18332804167041
C           96.51552545295716        1.29597680306601       -0.19355621743892
C           34.13291156995166       -0.15359780511875       -0.06235439617068
C           34.73421906400892        1.11928294797228       -0.08179337825206
C           34.08117991380518        2.38006651102163       -0.11307004179794
C           35.04500074981376        3.35134935403977       -0.12177742669262
C           36.31371136528828        2.70937817559658       -0.09608899978742
N           36.07418899970503        1.36271110605672       -0.07271758448789
C           37.56107418149170        3.32416854434775       -0.09482847792967
C           38.80855031032073        2.71961291369824       -0.07093802643519
C           40.05440897008933        3.46597100562318       -0.07371675902566
C           41.04652535324202        2.55201326904840       -0.04798216114011
N           39.06251840866091        1.38281314439715       -0.04320746616279
C           40.40239302331451        1.25147349698232       -0.02905525849220
C           41.11015635040783        0.03169483722063        0.00008935791062
C           40.50763216577779       -1.24151096209898        0.02152953825564
C           41.16091955914830       -2.50202063279728        0.05356261241382
C           40.19729578294894       -3.47352087490716        0.06578304552989
C           38.92876909318321       -2.83165371872056        0.04112052544078
N           39.16795855819579       -1.48486847794011        0.01521636480400
C           37.68157777402946       -3.44644904170356        0.04189230182384
C           36.43449832150900       -2.84140269656728        0.01642087692388
C           35.18875928406698       -3.58777872653315        0.01896008783590
C           34.19683213392243       -2.67394590785802       -0.01042111357544
C           34.84090272452250       -1.37315938850467       -0.03064906868400
N           36.18093402548034       -1.50471782152812       -0.01409194043801
H           33.01147650782064        2.51440161640374       -0.12687152839131
H           34.90058364394337        4.41972280734920       -0.14395449478949
H           36.78884788591280        0.64270608157171       -0.05109283631157
H           37.54592289658668        4.40939771900288       -0.11563579884422
H           40.12621786799722        4.54210334393868       -0.09322931358170
H           42.11314316068228        2.71108689938413       -0.04148321333984
H           42.23056874802755       -2.63666623919368        0.06569290148972
H           40.34193121664988       -4.54181316775482        0.08952861176786
H           38.45315840115765       -0.76499332944496       -0.00623122963412
H           37.69652349912781       -4.53161336793834        0.06477679808462
H           35.11698195269981       -4.66385797352807        0.04055342557540
H           33.13042171180366       -2.83386130834352       -0.01829733652767
C           55.41225266127999        0.03749394077162        0.00518894155641
C           56.06327615560264        1.28667640378881       -0.00426232176615
C           55.45880023013996        2.57159744732628       -0.01401991690694
C           56.45905844860899        3.50549356597013       -0.02131093523147
C           57.70206174248039        2.81517066979514       -0.01599159670398
N           57.41135860361983        1.47829816710717       -0.00585490053593
C           58.97214303947649        3.38152054876923       -0.01970916360650
C           60.19505999403734        2.72870367266313       -0.01351917581262
C           61.46898039773765        3.42576342251709       -0.01715131381855
C           62.42465610924274        2.47347360232065       -0.00826735092724
N           60.39659140643909        1.38259496623791       -0.00290360177182
C           61.73024833501083        1.19892123505264        0.00049118197675
C           62.39029600697702       -0.04786315010483        0.01079148063865
C           61.73931668135637       -1.29706726300930        0.01809649764184
C           62.34380918255678       -2.58195965288620        0.02728201175175
C           61.34355241458556       -3.51589962244425        0.03169925430727
C           60.10055757505885       -2.82559067449608        0.02550109902497
N           60.39121930406247       -1.48873498882480        0.01728569759311
C           58.83041838562676       -3.39194168668148        0.02782865225655
C           57.60754372654547       -2.73911417377419        0.02300091434108
C           56.33360459904008       -3.43618053923556        0.02731320117557
C           55.37791943806453       -2.48388830907415        0.02147186140248
C           56.07232219553986       -1.20930966200646        0.01331576771142
N           57.40595211489592       -1.39296490467304        0.01439414776215
H           54.39502753565991        2.74719089390091       -0.01531833563635
H           56.35540439145614        4.57877124026321       -0.02954224114420
H           58.09821786632583        0.73144667701777       -0.00011735093073
H           58.99878619122843        4.46668308445456       -0.02802608954989
H           61.58267012737984        4.49842135294715       -0.02530422701313
H           63.49664226825401        2.59098140832019       -0.00761052715210
H           63.40758762550843       -2.75751353443320        0.02998060833070
H           61.44723446623222       -4.58918303048710        0.03871735004122
H           59.70435682877699       -0.74188830688206        0.01149841849465
H           58.80378010638103       -4.47711444120718        0.03472200830202
H           56.21994453464386       -4.50885214254377        0.03404882875695
H           54.30592867199322       -2.60137421294353        0.02223655972952
C           76.69215478971276       -0.01887279939680       -0.00603010157107
C           77.29437351449404        1.25455766041166       -0.01830034944078
C           76.64067362690066        2.51529736814779       -0.01914688062203
C           77.60395260024353        3.48708971461927       -0.03334988029268
C           78.87270862878776        2.84522048331887       -0.04173238358655
N           78.63392079346514        1.49807390941104       -0.03194655311580
C           80.11970739432323        3.46000037798456       -0.05743382226703
C           81.36685391709702        2.85441770677306       -0.06672225480258
C           82.61263130501750        3.60045227394437       -0.08373638225835
C           83.60446604348076        2.68602008439036       -0.08891167164579
N           81.62018045045653        1.51741626450814       -0.06187977493002
C           82.96028031731173        1.38525945988357       -0.07495180905908
C           83.66815062391535        0.16529905861898       -0.07525124624305
C           83.06698238825473       -1.10774013864369       -0.06161736941321
C           83.72043407790086       -2.36864505919244       -0.06081976846890
C           82.75694081635460       -3.34021368458479       -0.04510513612696
C           81.48808922124663       -2.69821009307752       -0.03592344643612
N           81.72706923726795       -1.35134551793928       -0.04642406094523
C           80.24078742241140       -3.31310017106825       -0.01964549770088
C           78.99344837559006       -2.70809492824486       -0.01098421442159
C           77.74746938317341       -3.45407747982297        0.00519182323454
C           76.75553439439177       -2.53958809258869        0.00877717028069
C           77.39991575041824       -1.23905817161600       -0.00499305198733
N           78.73966264053581       -1.37089214016264       -0.01653187404513
H           75.57097976867588        2.64984396919959       -0.00992575197799
H           77.45894791440362        4.55559014413562       -0.03785336237224
H           79.34907254676146        0.77824417953975       -0.03482879976319
H           80.10472947447442        4.54538829976446       -0.06335202755186
H           82.68454191469327        4.67672115562193       -0.09050864066902
H           84.67089914464854        2.84553581489258       -0.10084364491573
H           84.79018556432668       -2.50291124298195       -0.07101278284242
H           82.90173321999630       -4.40875481550876       -0.04022448297216
H           81.01202911825469       -0.63140715443664       -0.04339133850440
H           80.25608053823592       -4.39850275522447       -0.01335121315591
H           77.67547530930194       -4.53035356161700        0.01236011137627
H           75.68889705661218       -2.69829640883738        0.01965542583455

          :  Hamiltonian                  GFN1-xTB          :
         :: total energy            -391.558741452199 Eh    ::
         :: gradient norm              0.000204790839 Eh/a0 ::
         :: HOMO-LUMO gap              0.364189475421 eV    ::
         :: SCC energy              -399.017371976352 Eh    ::
         :: repulsion energy           7.626867255943 Eh    ::

    * Orbital Energies and Occupations

         #    Occupation            Energy/Eh            Energy/eV
      -------------------------------------------------------------
         1        2.0000           -0.8082475             -21.9935
       ...           ...                  ...                  ...
       349        2.0000           -0.4057588             -11.0413
       350        2.0000           -0.4032854             -10.9740
       351        2.0000           -0.4032656             -10.9734
       352        2.0000           -0.4028164             -10.9612
       353        2.0000           -0.4022518             -10.9458
       354        2.0000           -0.4008552             -10.9078
       355        2.0000           -0.3899494             -10.6111
       356        2.0000           -0.3895316             -10.5997
       357        2.0000           -0.3876817             -10.5494
       358        2.0000           -0.3847689             -10.4701
       359        2.0000           -0.3807595             -10.3610
       360        2.0000           -0.3754658             -10.2169
       361        1.9982           -0.3716347             -10.1127 (HOMO)
       362        0.0017           -0.3582510              -9.7485 (LUMO)
       363        0.0002           -0.3562186              -9.6932
       364        0.0000           -0.3500990              -9.5267
       365                         -0.3455172              -9.4020
       366                         -0.3405283              -9.2662
       367                         -0.3352575              -9.1228
       368                         -0.3345827              -9.1045
       369                         -0.3345192              -9.1027
       370                         -0.3341115              -9.0916
       371                         -0.3337587              -9.0820
       372                         -0.3308658              -9.0033
       ...                                ...                  ...
       764                          1.6279529              44.2989
      -------------------------------------------------------------
                  HL-Gap            0.0133837 Eh            0.3642 eV

Wiberg/Mayer (AO) data.
largest (>0.10) Wiberg bond orders for each atom

     #   Z sym  total        # sym  WBO       # sym  WBO       # sym  WBO
 ---------------------------------------------------------------------------
     1   6 C    3.949 --     2 C    1.364    23 C    1.350    25 H    0.971
     2   6 C    3.900 --     1 C    1.364     3 C    1.213     6 N    1.170
     3   6 C    3.959 --     4 C    1.618     2 C    1.213    26 H    0.976
     4   6 C    3.958 --     3 C    1.618     5 C    1.213    27 H    0.976
     5   6 C    3.907 --     7 C    1.375     4 C    1.213     6 N    1.162
     6   7 N    3.468 --     2 C    1.170     5 C    1.162    28 H    0.876
     7   6 C    3.941 --     5 C    1.375     8 C    1.331    29 H    0.971
     8   6 C    3.931 --     7 C    1.331    11 N    1.298     9 C    1.136
     9   6 C    3.962 --    10 C    1.683     8 C    1.136    30 H    0.973
    10   6 C    3.803 --     9 C    1.683    12 C    1.100    13 C    0.419
                            31 H    0.279    11 N    0.158
    11   7 N    3.052 --     8 C    1.298    12 C    1.170    10 C    0.158
    12   6 C    3.919 --    13 C    1.494    11 N    1.170    10 C    1.100
    13   6 C    3.793 --    12 C    1.494    14 C    1.372    10 C    0.419
                            75 C    0.161
    14   6 C    3.895 --    13 C    1.372    15 C    1.221    18 N    1.129
    15   6 C    3.959 --    16 C    1.603    14 C    1.221    32 H    0.977
    16   6 C    3.956 --    15 C    1.603    17 C    1.225    33 H    0.977
    17   6 C    3.902 --    19 C    1.330    16 C    1.225    18 N    1.190
    18   7 N    3.470 --    17 C    1.190    14 C    1.129    34 H    0.875
    19   6 C    3.934 --    20 C    1.383    17 C    1.330    35 H    0.972
    20   6 C    3.931 --    19 C    1.383    24 N    1.291    21 C    1.111
    21   6 C    3.968 --    22 C    1.733    20 C    1.111    36 H    0.976
    22   6 C    3.966 --    21 C    1.733    23 C    1.108    37 H    0.976
    23   6 C    3.928 --     1 C    1.350    24 N    1.325    22 C    1.108
    24   7 N    3.034 --    23 C    1.325    20 C    1.291
    25   1 H    1.002 --     1 C    0.971
    26   1 H    0.998 --     3 C    0.976
    27   1 H    0.998 --     4 C    0.976
    28   1 H    0.984 --     6 N    0.876
    29   1 H    1.000 --     7 C    0.971
    30   1 H    1.000 --     9 C    0.973
    31   1 H    0.993 --    75 C    0.698    10 C    0.279
    32   1 H    1.000 --    15 C    0.977
    33   1 H    0.997 --    16 C    0.977
    34   1 H    0.981 --    18 N    0.875
    35   1 H    1.001 --    19 C    0.972
    36   1 H    0.998 --    21 C    0.976
    37   1 H    0.998 --    22 C    0.976
    38   6 C    3.949 --    39 C    1.365    60 C    1.350    62 H    0.971
    39   6 C    3.901 --    38 C    1.365    40 C    1.214    43 N    1.169
    40   6 C    3.959 --    41 C    1.618    39 C    1.214    63 H    0.976
    41   6 C    3.958 --    40 C    1.618    42 C    1.214    64 H    0.976
    42   6 C    3.905 --    44 C    1.370    41 C    1.214    43 N    1.164
    43   7 N    3.468 --    39 C    1.169    42 C    1.164    65 H    0.877
    44   6 C    3.931 --    42 C    1.370    45 C    1.338    66 H    0.971
    45   6 C    3.927 --    44 C    1.338    48 N    1.293    46 C    1.131
    46   6 C    3.966 --    47 C    1.697    45 C    1.131    67 H    0.973
    47   6 C    3.738 --    46 C    1.697    49 C    1.086    50 C    0.515
                            48 N    0.178    68 H    0.112
    48   7 N    3.028 --    45 C    1.293    49 C    1.147    47 C    0.178
    49   6 C    3.918 --    50 C    1.537    48 N    1.147    47 C    1.086
    50   6 C    3.850 --    49 C    1.537    51 C    1.371    47 C    0.515
    51   6 C    3.895 --    50 C    1.371    52 C    1.222    55 N    1.130
    52   6 C    3.959 --    53 C    1.600    51 C    1.222    69 H    0.976
    53   6 C    3.955 --    52 C    1.600    54 C    1.228    70 H    0.977
    54   6 C    3.900 --    56 C    1.333    53 C    1.228    55 N    1.184
    55   7 N    3.462 --    54 C    1.184    51 C    1.130    71 H    0.873
    56   6 C    3.916 --    57 C    1.381    54 C    1.333    72 H    0.972
    57   6 C    3.931 --    56 C    1.381    61 N    1.292    58 C    1.112
    58   6 C    3.968 --    59 C    1.732    57 C    1.112    73 H    0.976
    59   6 C    3.966 --    58 C    1.732    60 C    1.109    74 H    0.976
    60   6 C    3.928 --    38 C    1.350    61 N    1.324    59 C    1.109
    61   7 N    3.036 --    60 C    1.324    57 C    1.292
    62   1 H    1.002 --    38 C    0.971
    63   1 H    0.998 --    40 C    0.976
    64   1 H    0.998 --    41 C    0.976
    65   1 H    0.983 --    43 N    0.877
    66   1 H    1.000 --    44 C    0.971
    67   1 H    1.003 --    46 C    0.973
    68   1 H    1.007 --   114 C    0.879    47 C    0.112
    69   1 H    1.000 --    52 C    0.976
    70   1 H    0.997 --    53 C    0.977
    71   1 H    0.981 --    55 N    0.873
    72   1 H    1.001 --    56 C    0.972
    73   1 H    0.998 --    58 C    0.976
    74   1 H    0.998 --    59 C    0.976
    75   6 C    3.835 --    76 C    2.667    31 H    0.698    78 C    0.205
                            13 C    0.161
    76   6 C    3.981 --    75 C    2.667    77 C    1.276
    77   6 C    3.870 --    78 C    2.393    76 C    1.276    80 C    0.186
    78   6 C    3.983 --    77 C    2.393    79 C    1.353    75 C    0.205
    79   6 C    3.893 --    80 C    2.331    78 C    1.353    82 C    0.182
    80   6 C    3.918 --    79 C    2.331    81 C    1.369    77 C    0.186
    81   6 C    3.924 --    82 C    2.335    80 C    1.369    84 C    0.186
    82   6 C    3.892 --    81 C    2.335    83 C    1.345    79 C    0.182
    83   6 C    3.930 --    84 C    2.436    82 C    1.345
    84   6 C    3.878 --    83 C    2.436   115 C    1.196    81 C    0.186
    85   6 C    3.870 --    86 C    2.425   127 C    1.201    88 C    0.184
    86   6 C    3.929 --    85 C    2.425    87 C    1.354
    87   6 C    3.878 --    88 C    2.314    86 C    1.354    90 C    0.178
    88   6 C    3.922 --    87 C    2.314    89 C    1.388    85 C    0.184
    89   6 C    3.891 --    90 C    2.292    88 C    1.388    92 C    0.178
    90   6 C    3.891 --    89 C    2.292    91 C    1.388    87 C    0.178
    91   6 C    3.922 --    92 C    2.314    90 C    1.388    94 C    0.184
    92   6 C    3.878 --    91 C    2.314    93 C    1.355    89 C    0.178
    93   6 C    3.929 --    94 C    2.424    92 C    1.355
    94   6 C    3.870 --    93 C    2.424   151 C    1.201    91 C    0.184
    95   6 C    3.870 --    96 C    2.424   163 C    1.201    98 C    0.184
    96   6 C    3.929 --    95 C    2.424    97 C    1.355
    97   6 C    3.878 --    98 C    2.314    96 C    1.355   100 C    0.178
    98   6 C    3.922 --    97 C    2.314    99 C    1.388    95 C    0.184
    99   6 C    3.891 --   100 C    2.292    98 C    1.388   102 C    0.178
   100   6 C    3.891 --    99 C    2.292   101 C    1.388    97 C    0.178
   101   6 C    3.922 --   102 C    2.314   100 C    1.388   104 C    0.184
   102   6 C    3.878 --   101 C    2.314   103 C    1.355    99 C    0.178
   103   6 C    3.929 --   104 C    2.425   102 C    1.355
   104   6 C    3.870 --   103 C    2.425   187 C    1.201   101 C    0.184
   105   6 C    3.878 --   106 C    2.436   199 C    1.196   108 C    0.186
   106   6 C    3.930 --   105 C    2.436   107 C    1.345
   107   6 C    3.892 --   108 C    2.335   106 C    1.345   110 C    0.182
   108   6 C    3.924 --   107 C    2.335   109 C    1.369   105 C    0.186
   109   6 C    3.918 --   110 C    2.331   108 C    1.369   112 C    0.186
   110   6 C    3.894 --   109 C    2.331   111 C    1.353   107 C    0.182
   111   6 C    3.984 --   112 C    2.393   110 C    1.353   114 C    0.206
   112   6 C    3.875 --   111 C    2.393   113 C    1.281   109 C    0.186
   113   6 C    3.984 --   114 C    2.674   112 C    1.281
   114   6 C    3.854 --   113 C    2.674    68 H    0.879   111 C    0.206
   115   6 C    3.929 --   137 C    1.250   116 C    1.250    84 C    1.196
   116   6 C    3.885 --   115 C    1.250   117 C    1.248   120 N    1.193
   117   6 C    3.956 --   118 C    1.585   116 C    1.248   139 H    0.975
   118   6 C    3.954 --   117 C    1.585   119 C    1.237   140 H    0.977
   119   6 C    3.893 --   121 C    1.339   118 C    1.237   120 N    1.164
   120   7 N    3.473 --   116 C    1.193   119 C    1.164   141 H    0.873
   121   6 C    3.933 --   122 C    1.382   119 C    1.339   142 H    0.971
   122   6 C    3.917 --   121 C    1.382   125 N    1.275   123 C    1.119
   123   6 C    3.965 --   124 C    1.717   122 C    1.119   143 H    0.976
   124   6 C    3.964 --   123 C    1.717   126 C    1.125   144 H    0.975
   125   7 N    3.015 --   126 C    1.354   122 C    1.275
   126   6 C    3.908 --   125 N    1.354   127 C    1.249   124 C    1.125
   127   6 C    3.929 --   126 C    1.249   128 C    1.246    85 C    1.201
   128   6 C    3.884 --   129 C    1.249   127 C    1.246   132 N    1.194
   129   6 C    3.956 --   130 C    1.584   128 C    1.249   145 H    0.975
   130   6 C    3.954 --   129 C    1.584   131 C    1.238   146 H    0.977
   131   6 C    3.894 --   133 C    1.339   130 C    1.238   132 N    1.163
   132   7 N    3.473 --   128 C    1.194   131 C    1.163   147 H    0.873
   133   6 C    3.932 --   134 C    1.381   131 C    1.339   148 H    0.970
   134   6 C    3.917 --   133 C    1.381   138 N    1.276   135 C    1.118
   135   6 C    3.966 --   136 C    1.717   134 C    1.118   149 H    0.976
   136   6 C    3.964 --   135 C    1.717   137 C    1.124   150 H    0.975
   137   6 C    3.908 --   138 N    1.352   115 C    1.250   136 C    1.124
   138   7 N    3.014 --   137 C    1.352   134 C    1.276
   139   1 H    1.001 --   117 C    0.975
   140   1 H    0.997 --   118 C    0.977
   141   1 H    0.986 --   120 N    0.873
   142   1 H    1.002 --   121 C    0.971
   143   1 H    0.998 --   123 C    0.976
   144   1 H    1.002 --   124 C    0.975
   145   1 H    1.001 --   129 C    0.975
   146   1 H    0.997 --   130 C    0.977
   147   1 H    0.986 --   132 N    0.873
   148   1 H    1.002 --   133 C    0.970
   149   1 H    0.998 --   135 C    0.976
   150   1 H    1.002 --   136 C    0.975
   151   6 C    3.928 --   173 C    1.248   152 C    1.246    94 C    1.201
   152   6 C    3.884 --   153 C    1.249   151 C    1.246   156 N    1.194
   153   6 C    3.955 --   154 C    1.583   152 C    1.249   175 H    0.975
   154   6 C    3.954 --   153 C    1.583   155 C    1.238   176 H    0.977
   155   6 C    3.893 --   157 C    1.339   154 C    1.238   156 N    1.163
   156   7 N    3.473 --   152 C    1.194   155 C    1.163   177 H    0.873
   157   6 C    3.932 --   158 C    1.382   155 C    1.339   178 H    0.970
   158   6 C    3.917 --   157 C    1.382   161 N    1.274   159 C    1.119
   159   6 C    3.965 --   160 C    1.717   158 C    1.119   179 H    0.976
   160   6 C    3.963 --   159 C    1.717   162 C    1.125   180 H    0.975
   161   7 N    3.013 --   162 C    1.354   158 C    1.274
   162   6 C    3.908 --   161 N    1.354   163 C    1.248   160 C    1.125
   163   6 C    3.928 --   162 C    1.248   164 C    1.246    95 C    1.201
   164   6 C    3.884 --   165 C    1.249   163 C    1.246   168 N    1.194
   165   6 C    3.955 --   166 C    1.583   164 C    1.249   181 H    0.975
   166   6 C    3.954 --   165 C    1.583   167 C    1.238   182 H    0.977
   167   6 C    3.893 --   169 C    1.339   166 C    1.238   168 N    1.163
   168   7 N    3.473 --   164 C    1.194   167 C    1.163   183 H    0.873
   169   6 C    3.932 --   170 C    1.382   167 C    1.339   184 H    0.970
   170   6 C    3.917 --   169 C    1.382   174 N    1.274   171 C    1.119
   171   6 C    3.965 --   172 C    1.717   170 C    1.119   185 H    0.976
   172   6 C    3.963 --   171 C    1.717   173 C    1.125   186 H    0.975
   173   6 C    3.908 --   174 N    1.354   151 C    1.248   172 C    1.125
   174   7 N    3.013 --   173 C    1.354   170 C    1.274
   175   1 H    1.001 --   153 C    0.975
   176   1 H    0.997 --   154 C    0.977
   177   1 H    0.986 --   156 N    0.873
   178   1 H    1.002 --   157 C    0.970
   179   1 H    0.998 --   159 C    0.976
   180   1 H    1.002 --   160 C    0.975
   181   1 H    1.001 --   165 C    0.975
   182   1 H    0.997 --   166 C    0.977
   183   1 H    0.986 --   168 N    0.873
   184   1 H    1.002 --   169 C    0.970
   185   1 H    0.998 --   171 C    0.976
   186   1 H    1.002 --   172 C    0.975
   187   6 C    3.929 --   209 C    1.249   188 C    1.246   104 C    1.201
   188   6 C    3.884 --   189 C    1.249   187 C    1.246   192 N    1.194
   189   6 C    3.956 --   190 C    1.584   188 C    1.249   211 H    0.975
   190   6 C    3.954 --   189 C    1.584   191 C    1.238   212 H    0.977
   191   6 C    3.894 --   193 C    1.340   190 C    1.238   192 N    1.163
   192   7 N    3.473 --   188 C    1.194   191 C    1.163   213 H    0.873
   193   6 C    3.932 --   194 C    1.381   191 C    1.340   214 H    0.970
   194   6 C    3.917 --   193 C    1.381   197 N    1.276   195 C    1.119
   195   6 C    3.966 --   196 C    1.717   194 C    1.119   215 H    0.976
   196   6 C    3.964 --   195 C    1.717   198 C    1.124   216 H    0.975
   197   7 N    3.014 --   198 C    1.352   194 C    1.276
   198   6 C    3.908 --   197 N    1.352   199 C    1.250   196 C    1.124
   199   6 C    3.929 --   198 C    1.250   200 C    1.250   105 C    1.196
   200   6 C    3.885 --   199 C    1.250   201 C    1.248   204 N    1.192
   201   6 C    3.956 --   202 C    1.584   200 C    1.248   217 H    0.975
   202   6 C    3.954 --   201 C    1.584   203 C    1.238   218 H    0.977
   203   6 C    3.893 --   205 C    1.339   202 C    1.238   204 N    1.164
   204   7 N    3.473 --   200 C    1.192   203 C    1.164   219 H    0.873
   205   6 C    3.933 --   206 C    1.382   203 C    1.339   220 H    0.971
   206   6 C    3.917 --   205 C    1.382   210 N    1.275   207 C    1.119
   207   6 C    3.965 --   208 C    1.717   206 C    1.119   221 H    0.976
   208   6 C    3.963 --   207 C    1.717   209 C    1.124   222 H    0.975
   209   6 C    3.908 --   210 N    1.354   187 C    1.249   208 C    1.124
   210   7 N    3.015 --   209 C    1.354   206 C    1.275
   211   1 H    1.001 --   189 C    0.975
   212   1 H    0.997 --   190 C    0.977
   213   1 H    0.986 --   192 N    0.873
   214   1 H    1.002 --   193 C    0.970
   215   1 H    0.998 --   195 C    0.976
   216   1 H    1.002 --   196 C    0.975
   217   1 H    1.001 --   201 C    0.975
   218   1 H    0.997 --   202 C    0.977
   219   1 H    0.986 --   204 N    0.873
   220   1 H    1.002 --   205 C    0.971
   221   1 H    0.998 --   207 C    0.976
   222   1 H    1.002 --   208 C    0.975
 ---------------------------------------------------------------------------

           -------------------------------------------------
          | TOTAL ENERGY             -391.558741452199 Eh   |
          | GRADIENT NORM               0.000204790839 Eh/α |
          | HOMO-LUMO GAP               0.364189475421 eV   |
           -------------------------------------------------

 * finished run on 2022/07/26 at 18:43:26.074
