   * xtb version 6.5.1 (b24c23e) compiled by 'conda@728c89f4b128' on 2022-07-12
          program call               : xtb Co_m-CP_C8_2.xyz --gfn 1 --opt -T 48

   ID    Z sym.   atoms
    1   27 Co     1, 63
    2    6 C      2-6, 8-12, 15-20, 22-27, 29-35, 38-42, 64-68, 70-74, 77-82,
                  84-89, 91-97, 100-104, 125-132
    3    7 N      7, 21, 28, 43, 69, 83, 90, 105
    4    8 O      13, 14, 36, 37, 75, 76, 98, 99
    5    1 H      44-62, 106-124
########################################################################
[WARNING] Please study the warnings concerning your input carefully
-1- prog_main_parseArguments: Unknown option '-T' provided
########################################################################

          :  Hamiltonian                  GFN1-xTB          :
 * total energy  :  -250.1236630 Eh     change       -0.9655992E-09 Eh
 * total energy  :  -250.8757080 Eh     change       -0.7520450E+00 Eh
 * total energy  :  -251.0180000 Eh     change       -0.1422920E+00 Eh
 * total energy  :  -251.0839877 Eh     change       -0.6598774E-01 Eh
 * total energy  :  -251.1137457 Eh     change       -0.2975796E-01 Eh
 * total energy  :  -251.1279345 Eh     change       -0.1418884E-01 Eh
 * total energy  :  -251.1369492 Eh     change       -0.9014693E-02 Eh
 * total energy  :  -251.1432616 Eh     change       -0.6312381E-02 Eh
 * total energy  :  -251.1479269 Eh     change       -0.4665243E-02 Eh
 * total energy  :  -251.1508991 Eh     change       -0.2972192E-02 Eh
 * total energy  :  -251.1626097 Eh     change       -0.4338141E-04 Eh
 * total energy  :  -251.1626449 Eh     change       -0.3525192E-04 Eh
 * total energy  :  -251.1626609 Eh     change       -0.1598761E-04 Eh
 * total energy  :  -251.1626787 Eh     change       -0.1783959E-04 Eh
 * total energy  :  -251.1626902 Eh     change       -0.1143172E-04 Eh
 * total energy  :  -251.1627009 Eh     change       -0.1073472E-04 Eh
 * total energy  :  -251.1627069 Eh     change       -0.5991097E-05 Eh
 * total energy  :  -251.1627101 Eh     change       -0.3235568E-05 Eh
 * total energy  :  -251.1627144 Eh     change       -0.4284022E-05 Eh
   *** GEOMETRY OPTIMIZATION CONVERGED AFTER 67 ITERATIONS ***

 final structure:
================
132
 xtb: 6.5.1 (b24c23e)
Co          13.22206292567340       -0.00107837780123        0.09833255549568
C            9.85762053846426       -0.03003599878108        0.26654421886840
C           10.49415349033796        1.18293267946449        0.11084736153165
C            9.81535706355509        2.43650234871194       -0.01849657659588
C           10.76502466451541        3.39989735249605        0.03024230831515
C           12.02199227911098        2.73392663758350        0.21305256978793
N           11.85145433702082        1.37288381354564        0.18279419015948
C           13.21280802164713        3.37699354307319        0.52250151665529
C           13.21726650404557        4.84637887494312        0.70547200132499
C           12.40606497202691        5.44517561903943        1.66525451585599
C           12.41755861792364        6.82874806375298        1.83708738213848
C           11.53291236127416        7.40677145497250        2.88016305283054
O           11.62378364701185        8.74069700717849        2.98048478453636
O           10.79585872038298        6.76113907967394        3.58047620798235
C           13.24257978355240        7.62537380435754        1.04331077169190
C           14.05063288900510        7.03159647664520        0.08648087385339
C           14.04196468440830        5.65430859183786       -0.08144342280709
C           14.40043408171557        2.67776196178436        0.68564860786895
C           15.63580931815943        3.26760998070245        1.10480593604646
C           16.58861864873948        2.31205900141691        0.97707374379298
N           14.58684329297546        1.35345884924799        0.36547978958774
C           15.93261102819439        1.14390015612144        0.48216213021958
C           16.60980648214370        0.01288800003192        0.01816758419306
C           15.92569873916943       -1.10901037029361       -0.45816456571984
C           16.57062698241494       -2.24974502822909       -1.02611079026668
C           15.61253760672402       -3.19294902938853       -1.19678774721609
C           14.38841630979320       -2.63037030976930       -0.71096623658018
N           14.58168554299151       -1.32125622802702       -0.33178395880068
C           13.21925513597975       -3.35049792427517       -0.51500426174163
C           13.21722142367629       -4.80789187151254       -0.77782613886044
C           14.10198850995159       -5.65065972820733       -0.10068276804073
C           14.10241864172750       -7.01712675760259       -0.34290125317805
C           13.22305186910328       -7.55912268130775       -1.26510955315669
C           12.33365831270162       -6.72771944490093       -1.94776479075709
C           11.40733396937690       -7.34760501650941       -2.92861324266892
O           10.58734652297089       -6.46864511128898       -3.52289435715786
O           11.37538953671677       -8.52462661791347       -3.18192897643744
C           12.33048326176621       -5.35621310575654       -1.70228006891081
C           12.05431148220024       -2.74470691364643       -0.06124701532084
C           10.83936143763186       -3.44448084619426        0.23843685441635
C            9.89247920456412       -2.50438450088903        0.46897701199575
C           10.53051068458059       -1.23231993482797        0.31522043701690
N           11.86836039526495       -1.39143163505800        0.05249962126228
H            8.77657349920248       -0.04009186439728        0.33907160068403
H            8.74801902958565        2.54460155631125       -0.12707093628703
H           10.63910957748943        4.46802324540276       -0.04100552743333
H           11.76968040718824        4.84082238091949        2.30237747678411
H           11.01995628649289        9.03920164166261        3.67997799734965
H           13.24825849296882        8.70032825222000        1.17696085051154
H           14.69275874330145        7.64484387139884       -0.53549649038861
H           14.66817300020339        5.19708896732191       -0.83931014185190
H           15.74796177956751        4.28106554350181        1.45426337112496
H           17.64483057041621        2.38038165194172        1.18236629251384
H           17.62233956128779       -2.30683264736229       -1.25606911705125
H           15.71572929411885       -4.18376687130427       -1.60833855319332
H           14.78166848473160       -5.23017643569262        0.63197873429749
H           14.79233418263430       -7.65894418875995        0.19307009751574
H           13.21070492941437       -8.62412948156654       -1.46752093576787
H           10.01871329159521       -6.94986009423062       -4.14571237767082
H           11.64841677830485       -4.71139274812384       -2.24380473340405
H           10.73753987017413       -4.51734091124684        0.26452147731572
H            8.85038904606902       -2.63992145651622        0.71081311117814
Co          31.73333774812910       -0.03381137238215        0.09305472719574
C           35.09800480160275       -0.05922740052066        0.25890757947071
C           34.46173333966941       -1.15600194088840       -0.28237788570725
C           35.14087895646702       -2.29868921883799       -0.81337585111329
C           34.19158876045346       -3.22602281499024       -1.08038359662119
C           32.93454860622777       -2.65672007927320       -0.68970449881662
N           33.10462263816289       -1.35995610725292       -0.27498569753051
C           31.74413524594810       -3.36610040438914       -0.60596952413102
C           31.73969695031990       -4.81473954601112       -0.91257957111311
C           32.55206604372150       -5.69401873905433       -0.20218777054616
C           32.53996713172993       -7.05789197054301       -0.49134281668671
C           33.42540471342863       -7.94515634709151        0.30500541336677
O           33.33466194550765       -9.23849880808491       -0.03640971035252
O           34.16231574925796       -7.56381185952015        1.17789280490994
C           31.71315837479282       -7.55182633015940       -1.50022240319919
C           30.90402556696099       -6.67825337653082       -2.20955429839598
C           30.91326811670838       -5.32160062933389       -1.91871350936824
C           30.55646099366322       -2.75866415500943       -0.22309966143101
C           29.32163604655323       -3.45372223228794       -0.01820631677791
C           28.36815058715614       -2.50932748192626        0.17212327777477
N           30.36916962342356       -1.40248304315134       -0.09448804169503
C           29.02320266275916       -1.24321901972755        0.08411248754639
C           28.34544876989006       -0.02316838755144        0.01379684770777
C           29.02905043153797        1.19316032387951       -0.07025616524744
C           28.38299511537532        2.45631773628451       -0.23404991874384
C           29.34034580966899        3.40431375892569       -0.08753179679130
C           30.56515579268352        2.71487934482212        0.18701686690923
N           30.37291268805026        1.35348012029890        0.11810823137634
C           31.73427928019978        3.33235906071649        0.60614129251815
C           31.73591126952179        4.79575722076103        0.83316960967324
C           30.85285372697876        5.37103939843587        1.75002210610632
C           30.85284423013096        6.74166977747179        1.96749634250971
C           31.73091579976056        7.55521562389439        1.27141426433011
C           32.61849901751032        6.99248118550019        0.35288954317102
C           33.54436217973713        7.89857755341688       -0.37265906421226
O           34.36395377897890        7.26162998801025       -1.22142845425585
O           33.57541469741214        9.09395853834045       -0.22891645173620
C           32.62117223639955        5.61604179516661        0.13681393886756
C           32.89988529761931        2.61238815907311        0.83625396414103
C           34.11502310240231        3.17718565393197        1.34621852306437
C           35.06257471759480        2.21407660704146        1.25639460946433
C           34.42473492084463        1.06111609814916        0.69720609311590
N           33.08639249956969        1.29607181959578        0.50244523457936
H           36.17914677914331       -0.07241799953670        0.32951751376531
H           36.20815628666539       -2.36492225148633       -0.95196704585726
H           34.31797677633246       -4.21259302194670       -1.49573603495815
H           33.18998838256094       -5.33076437204719        0.59621037603805
H           33.93857049070133       -9.74905329822922        0.52727760557572
H           31.70687053292876       -8.61155709447960       -1.72455886807737
H           30.26037705578796       -7.05493562308928       -2.99639603789874
H           30.28607261465791       -4.64212467532265       -2.48476853226138
H           29.21032829683717       -4.52583609828048       -0.01730806685025
H           27.31212625184428       -2.64161938222732        0.34446899161111
H           27.33103733891686        2.58445375652032       -0.43206942527527
H           29.23614457962972        4.47510282910241       -0.15247790363936
H           30.17418866455353        4.73426178971266        2.30632143664198
H           30.16449870295404        7.17314170067318        2.68517471464548
H           31.74380903458992        8.62786160051895        1.42831354372658
H           34.93199190776529        7.91984903949209       -1.65367908600299
H           33.30178091554148        5.18351293824347       -0.58693767119631
H           34.21637199429477        4.18299575695623        1.72058895500699
H           36.10499324654965        2.26420407019159        1.52785667937120
C           18.01165989244967        0.00999859257750        0.01442805014394
C           19.23663152826007        0.00554920584574        0.01213743061037
C           20.57799410079012        0.00178124746231        0.01043281632423
C           21.80931653336889       -0.00431482575539        0.00936479640710
C           23.14587173512569       -0.00853381671185        0.00844004146126
C           24.37728888243104       -0.01221165058776        0.00921508389924
C           25.71865130685878       -0.01637558060978        0.01035395949917
C           26.94360945804318       -0.01913361239260        0.01097142463702

          :  Hamiltonian                  GFN1-xTB          :
         :: total energy            -251.162714407329 Eh    ::
         :: gradient norm              0.000728467280 Eh/a0 ::
         :: HOMO-LUMO gap              0.006367619783 eV    ::
         :: SCC energy              -254.928713528935 Eh    ::
         :: repulsion energy           3.881675460043 Eh    ::

    * Orbital Energies and Occupations

         #    Occupation            Energy/Eh            Energy/eV
      -------------------------------------------------------------
         1        2.0000           -0.8349567             -22.7203
       ...           ...                  ...                  ...
       212        2.0000           -0.4254773             -11.5778
       213        2.0000           -0.4178602             -11.3706
       214        2.0000           -0.4042218             -10.9994
       215        2.0000           -0.4042094             -10.9991
       216        2.0000           -0.4034748             -10.9791
       217        2.0000           -0.4032961             -10.9742
       218        2.0000           -0.4013162             -10.9204
       219        1.9998           -0.3997189             -10.8769
       220        1.9998           -0.3997142             -10.8768
       221        1.9997           -0.3995752             -10.8730
       222        1.9997           -0.3995710             -10.8729
       223        1.8929           -0.3938198             -10.7164
       224        1.1154           -0.3913111             -10.6481 (HOMO)
       225        0.9927           -0.3910771             -10.6417 (LUMO)
       226                         -0.3464570              -9.4276
       227                         -0.3367137              -9.1624
       228                         -0.3361859              -9.1481
       229                         -0.3361645              -9.1475
       230                         -0.3145182              -8.5585
       231                         -0.3138798              -8.5411
       232                         -0.3126149              -8.5067
       233                         -0.3125745              -8.5056
       234                         -0.3093809              -8.4187
       235                         -0.3090906              -8.4108
       ...                                ...                  ...
       462                          1.5966281              43.4465
      -------------------------------------------------------------
                  HL-Gap            0.0002340 Eh            0.0064 eV

Wiberg/Mayer (AO) data.
largest (>0.10) Wiberg bond orders for each atom

     #   Z sym  total        # sym  WBO       # sym  WBO       # sym  WBO
 ---------------------------------------------------------------------------
     1  27 Co   3.060 --     7 N    0.644    43 N    0.639    28 N    0.637
                            21 N    0.634
     2   6 C    3.930 --    42 C    1.365     3 C    1.365    44 H    0.970
     3   6 C    3.923 --     2 C    1.365     7 N    1.200     4 C    1.173
     4   6 C    3.959 --     5 C    1.651     3 C    1.173    45 H    0.975
     5   6 C    3.963 --     4 C    1.651     6 C    1.174    46 H    0.973
     6   6 C    3.921 --     8 C    1.322     7 N    1.210     5 C    1.174
     7   7 N    3.347 --     6 C    1.210     3 C    1.200     1 Co   0.644
     8   6 C    3.933 --    18 C    1.326     6 C    1.322     9 C    1.030
     9   6 C    3.988 --    10 C    1.407    17 C    1.386     8 C    1.030
                            15 C    0.102
    10   6 C    3.983 --     9 C    1.407    11 C    1.397    47 H    0.967
                            16 C    0.104
    11   6 C    3.988 --    10 C    1.397    15 C    1.391    12 C    1.004
    12   6 C    3.836 --    14 O    1.693    13 O    1.090    11 C    1.004
    13   8 O    2.099 --    12 C    1.090    48 H    0.838    14 O    0.129
    14   8 O    1.962 --    12 C    1.693    13 O    0.129
    15   6 C    3.986 --    16 C    1.447    11 C    1.391    49 H    0.970
                             9 C    0.102
    16   6 C    3.994 --    15 C    1.447    17 C    1.442    50 H    0.972
                            10 C    0.104
    17   6 C    3.985 --    16 C    1.442     9 C    1.386    51 H    0.972
    18   6 C    3.917 --     8 C    1.326    21 N    1.196    19 C    1.183
    19   6 C    3.958 --    20 C    1.635    18 C    1.183    52 H    0.973
    20   6 C    3.961 --    19 C    1.635    22 C    1.191    53 H    0.973
    21   7 N    3.349 --    22 C    1.227    18 C    1.196     1 Co   0.634
    22   6 C    3.902 --    23 C    1.259    21 N    1.227    20 C    1.191
    23   6 C    3.936 --    22 C    1.259    24 C    1.257   125 C    1.194
    24   6 C    3.902 --    23 C    1.257    28 N    1.230    25 C    1.191
    25   6 C    3.960 --    26 C    1.636    24 C    1.191    54 H    0.973
    26   6 C    3.958 --    25 C    1.636    27 C    1.181    55 H    0.973
    27   6 C    3.917 --    29 C    1.332    28 N    1.192    26 C    1.181
    28   7 N    3.347 --    24 C    1.230    27 C    1.192     1 Co   0.637
    29   6 C    3.933 --    27 C    1.332    39 C    1.317    30 C    1.030
    30   6 C    3.988 --    38 C    1.404    31 C    1.387    29 C    1.030
                            33 C    0.102
    31   6 C    3.987 --    32 C    1.440    30 C    1.387    56 H    0.972
    32   6 C    3.994 --    33 C    1.450    31 C    1.440    57 H    0.972
                            38 C    0.104
    33   6 C    3.985 --    32 C    1.450    34 C    1.388    58 H    0.969
                            30 C    0.102
    34   6 C    3.988 --    38 C    1.400    33 C    1.388    35 C    1.005
    35   6 C    3.836 --    37 O    1.693    36 O    1.090    34 C    1.005
    36   8 O    2.099 --    35 C    1.090    59 H    0.838    37 O    0.129
    37   8 O    1.961 --    35 C    1.693    36 O    0.129
    38   6 C    3.983 --    30 C    1.404    34 C    1.400    60 H    0.969
                            32 C    0.104
    39   6 C    3.921 --    29 C    1.317    43 N    1.213    40 C    1.176
    40   6 C    3.963 --    41 C    1.649    39 C    1.176    61 H    0.973
    41   6 C    3.960 --    40 C    1.649    42 C    1.174    62 H    0.975
    42   6 C    3.923 --     2 C    1.365    43 N    1.199    41 C    1.174
    43   7 N    3.348 --    39 C    1.213    42 C    1.199     1 Co   0.639
    44   1 H    0.999 --     2 C    0.970
    45   1 H    0.997 --     4 C    0.975
    46   1 H    1.003 --     5 C    0.973
    47   1 H    1.007 --    10 C    0.967
    48   1 H    0.872 --    13 O    0.838
    49   1 H    1.005 --    15 C    0.970
    50   1 H    1.002 --    16 C    0.972
    51   1 H    1.005 --    17 C    0.972
    52   1 H    1.003 --    19 C    0.973
    53   1 H    1.001 --    20 C    0.973
    54   1 H    1.001 --    25 C    0.973
    55   1 H    1.003 --    26 C    0.973
    56   1 H    1.005 --    31 C    0.972
    57   1 H    1.001 --    32 C    0.972
    58   1 H    1.005 --    33 C    0.969
    59   1 H    0.873 --    36 O    0.838
    60   1 H    1.008 --    38 C    0.969
    61   1 H    1.003 --    40 C    0.973
    62   1 H    0.997 --    41 C    0.975
    63  27 Co   3.060 --    69 N    0.644   105 N    0.639    90 N    0.637
                            83 N    0.634
    64   6 C    3.930 --   104 C    1.365    65 C    1.365   106 H    0.970
    65   6 C    3.923 --    64 C    1.365    69 N    1.200    66 C    1.173
    66   6 C    3.959 --    67 C    1.651    65 C    1.173   107 H    0.975
    67   6 C    3.963 --    66 C    1.651    68 C    1.174   108 H    0.973
    68   6 C    3.921 --    70 C    1.322    69 N    1.210    67 C    1.174
    69   7 N    3.347 --    68 C    1.210    65 C    1.200    63 Co   0.644
    70   6 C    3.933 --    80 C    1.326    68 C    1.322    71 C    1.030
    71   6 C    3.988 --    72 C    1.407    79 C    1.386    70 C    1.030
                            77 C    0.102
    72   6 C    3.983 --    71 C    1.407    73 C    1.397   109 H    0.967
                            78 C    0.104
    73   6 C    3.988 --    72 C    1.397    77 C    1.391    74 C    1.004
    74   6 C    3.836 --    76 O    1.693    75 O    1.090    73 C    1.004
    75   8 O    2.099 --    74 C    1.090   110 H    0.838    76 O    0.129
    76   8 O    1.962 --    74 C    1.693    75 O    0.129
    77   6 C    3.986 --    78 C    1.447    73 C    1.391   111 H    0.970
                            71 C    0.102
    78   6 C    3.994 --    77 C    1.447    79 C    1.442   112 H    0.972
                            72 C    0.104
    79   6 C    3.985 --    78 C    1.442    71 C    1.386   113 H    0.972
    80   6 C    3.917 --    70 C    1.326    83 N    1.196    81 C    1.183
    81   6 C    3.958 --    82 C    1.635    80 C    1.183   114 H    0.973
    82   6 C    3.961 --    81 C    1.635    84 C    1.191   115 H    0.973
    83   7 N    3.349 --    84 C    1.227    80 C    1.196    63 Co   0.634
    84   6 C    3.902 --    85 C    1.259    83 N    1.227    82 C    1.191
    85   6 C    3.936 --    84 C    1.259    86 C    1.257   132 C    1.194
    86   6 C    3.902 --    85 C    1.257    90 N    1.230    87 C    1.191
    87   6 C    3.960 --    88 C    1.636    86 C    1.191   116 H    0.973
    88   6 C    3.958 --    87 C    1.636    89 C    1.181   117 H    0.973
    89   6 C    3.917 --    91 C    1.332    90 N    1.192    88 C    1.181
    90   7 N    3.347 --    86 C    1.230    89 C    1.192    63 Co   0.637
    91   6 C    3.933 --    89 C    1.332   101 C    1.317    92 C    1.030
    92   6 C    3.988 --   100 C    1.404    93 C    1.387    91 C    1.030
                            95 C    0.102
    93   6 C    3.987 --    94 C    1.440    92 C    1.387   118 H    0.972
    94   6 C    3.994 --    95 C    1.450    93 C    1.440   119 H    0.972
                           100 C    0.104
    95   6 C    3.985 --    94 C    1.450    96 C    1.388   120 H    0.969
                            92 C    0.102
    96   6 C    3.988 --   100 C    1.400    95 C    1.388    97 C    1.005
    97   6 C    3.836 --    99 O    1.693    98 O    1.090    96 C    1.005
    98   8 O    2.099 --    97 C    1.090   121 H    0.838    99 O    0.129
    99   8 O    1.961 --    97 C    1.693    98 O    0.129
   100   6 C    3.983 --    92 C    1.404    96 C    1.400   122 H    0.969
                            94 C    0.104
   101   6 C    3.921 --    91 C    1.317   105 N    1.213   102 C    1.176
   102   6 C    3.963 --   103 C    1.649   101 C    1.176   123 H    0.973
   103   6 C    3.960 --   102 C    1.649   104 C    1.174   124 H    0.975
   104   6 C    3.923 --    64 C    1.365   105 N    1.198   103 C    1.174
   105   7 N    3.348 --   101 C    1.213   104 C    1.198    63 Co   0.639
   106   1 H    1.000 --    64 C    0.970
   107   1 H    0.997 --    66 C    0.975
   108   1 H    1.003 --    67 C    0.973
   109   1 H    1.007 --    72 C    0.967
   110   1 H    0.873 --    75 O    0.838
   111   1 H    1.005 --    77 C    0.970
   112   1 H    1.002 --    78 C    0.972
   113   1 H    1.005 --    79 C    0.972
   114   1 H    1.003 --    81 C    0.973
   115   1 H    1.001 --    82 C    0.973
   116   1 H    1.001 --    87 C    0.973
   117   1 H    1.003 --    88 C    0.973
   118   1 H    1.005 --    93 C    0.972
   119   1 H    1.001 --    94 C    0.972
   120   1 H    1.005 --    95 C    0.969
   121   1 H    0.873 --    98 O    0.838
   122   1 H    1.008 --   100 C    0.969
   123   1 H    1.003 --   102 C    0.973
   124   1 H    0.997 --   103 C    0.975
   125   6 C    3.871 --   126 C    2.431    23 C    1.194   128 C    0.185
   126   6 C    3.931 --   125 C    2.431   127 C    1.350
   127   6 C    3.887 --   128 C    2.325   126 C    1.350   130 C    0.180
   128   6 C    3.921 --   127 C    2.325   129 C    1.376   125 C    0.185
   129   6 C    3.921 --   130 C    2.325   128 C    1.376   132 C    0.185
   130   6 C    3.887 --   129 C    2.325   131 C    1.350   127 C    0.180
   131   6 C    3.931 --   132 C    2.431   130 C    1.350
   132   6 C    3.871 --   131 C    2.431    85 C    1.194   129 C    0.185
 ---------------------------------------------------------------------------

           -------------------------------------------------
          | TOTAL ENERGY             -251.162714407329 Eh   |
          | GRADIENT NORM               0.000728467280 Eh/α |
          | HOMO-LUMO GAP               0.006367619783 eV   |
           -------------------------------------------------

 * finished run on 2022/07/30 at 00:27:43.037
