   * xtb version 6.5.1 (b24c23e) compiled by 'conda@728c89f4b128' on 2022-07-12
          program call               : xtb Fe_PhNH2_C4_2.xyz --gfn 1 --opt -T 48

   ID    Z sym.   atoms
    1   26 Fe     1, 61
    2    6 C      2-6, 8-12, 14-18, 20-25, 27-31, 33-38, 62-66, 68-72, 74-78,
                  80-85, 87-91, 93-98, 121-124
    3    7 N      7, 13, 19, 26, 32, 39, 67, 73, 79, 86, 92, 99
    4    1 H      40-60, 100-120
########################################################################
[WARNING] Please study the warnings concerning your input carefully
-1- prog_main_parseArguments: Unknown option '-T' provided
########################################################################

          :  Hamiltonian                  GFN1-xTB          :
 * total energy  :  -209.6026492 Eh     change        0.1652234E-07 Eh
 * total energy  :  -210.4728708 Eh     change       -0.8702215E+00 Eh
 * total energy  :  -210.5786447 Eh     change       -0.1057739E+00 Eh
 * total energy  :  -210.6367286 Eh     change       -0.5808398E-01 Eh
 * total energy  :  -210.6560580 Eh     change       -0.1932936E-01 Eh
 * total energy  :  -210.6663048 Eh     change       -0.1024681E-01 Eh
 * total energy  :  -210.6721199 Eh     change       -0.5815116E-02 Eh
 * total energy  :  -210.6756609 Eh     change       -0.3540987E-02 Eh
 * total energy  :  -210.6780785 Eh     change       -0.2417581E-02 Eh
 * total energy  :  -210.6799809 Eh     change       -0.1902433E-02 Eh
 * total energy  :  -210.6904134 Eh     change       -0.2057618E-04 Eh
 * total energy  :  -210.6904239 Eh     change       -0.1049453E-04 Eh
 * total energy  :  -210.6904363 Eh     change       -0.1244345E-04 Eh
 * total energy  :  -210.6904439 Eh     change       -0.7556890E-05 Eh
 * total energy  :  -210.6904501 Eh     change       -0.6284151E-05 Eh
 * total energy  :  -210.6904556 Eh     change       -0.5434027E-05 Eh
 * total energy  :  -210.6904528 Eh     change        0.2815517E-05 Eh
 * total energy  :  -210.6904592 Eh     change       -0.6489663E-05 Eh
 * total energy  :  -210.6904610 Eh     change       -0.1724245E-05 Eh
   *** GEOMETRY OPTIMIZATION CONVERGED AFTER 46 ITERATIONS ***

 final structure:
================
124
 xtb: 6.5.1 (b24c23e)
Fe          15.39858831470890        0.03926743684418       -0.06542053860318
C           12.01485175208229        0.12766934583217        0.03763741812417
C           12.66834680300339        1.14962777523270       -0.62024641310300
C           11.99806923593277        2.21532252027280       -1.30089441932294
C           12.95849821238648        3.07944884504070       -1.70797852961648
C           14.21333718548482        2.54440105087772       -1.26533069541262
N           14.02506875080293        1.34410366745096       -0.63676271917767
C           15.43479609612839        3.19648477884827       -1.41512610048912
C           15.44331910005303        4.55887971525643       -1.99150339595042
C           16.16390367589514        4.84199872821486       -3.15477271967252
C           16.16829248783444        6.11587699825883       -3.69403102508765
C           15.45225503604011        7.14306326789156       -3.07324348357421
N           15.49521144531230        8.42921332542751       -3.58041969341969
C           14.73974860809215        6.87127598440408       -1.90205012774342
C           14.73014988284280        5.59186606756742       -1.37684734172581
C           16.64168095714700        2.61862147262847       -1.04242383911656
C           17.91042260734293        3.27600438538205       -1.14511734856773
C           18.85215273235450        2.36592007881540       -0.79665343931803
N           16.80780468983859        1.33500435765639       -0.57870182554463
C           18.15562315549970        1.16287599525161       -0.46611974162072
C           18.80455653038954       -0.03051795652566       -0.12608430480396
C           18.11669538545482       -1.19122560475977        0.24930384153410
C           18.76854857162828       -2.42801403532565        0.54335644500048
C           17.80439431953284       -3.28489106320692        0.96001687529967
C           16.56796135180754       -2.56227584006250        0.93143710225670
N           16.77250056118832       -1.28931183834539        0.45549331373791
C           15.35632499452178       -3.07611788764025        1.37706843554712
C           15.33252666043282       -4.42993537944108        1.97243727856212
C           16.10451497100978       -4.72940905747142        3.09821251811064
C           16.08009158270657       -5.99344804125658        3.65934391752855
C           15.29185927558037       -6.99810445622552        3.09136561078392
N           15.23581155881893       -8.25252491747732        3.67122638807518
C           14.51517613128731       -6.70642065888055        1.96662657459061
C           14.53577073855709       -5.43635322096534        1.41944452979300
C           14.16055025027005       -2.36963198156333        1.27714458134494
C           12.90244132874368       -2.84663197178983        1.77424162469365
C           11.96371133610409       -1.94851831219431        1.39159500363935
C           12.65117684121363       -0.91775203885938        0.67505250610149
N           13.99957933642384       -1.16304850467869        0.65174765830177
H           10.93091369313705        0.14905895902513        0.05779636756428
H           10.93034359312943        2.27715898770495       -1.44035446749132
H           12.83998300809317        3.99468424210227       -2.26514971533446
H           16.70712683441927        4.04636230809361       -3.65275048150132
H           16.72429428915200        6.32140552735631       -4.60225297146243
H           15.73332378616336        8.49696644079982       -4.55687142653928
H           14.73116681358857        9.02442374323792       -3.30329733718693
H           14.19415352215361        7.66764801069610       -1.40775031048807
H           14.18232931259410        5.39074919731814       -0.46272816604732
H           18.05365900148918        4.30255507534911       -1.44047464057083
H           19.92300770090662        2.48538555595556       -0.75919154357581
H           19.82676617930010       -2.60480616536262        0.43650647869799
H           17.91138622996467       -4.31684190639842        1.25223955512071
H           16.71132861558141       -3.95276362520585        3.55064365908545
H           16.67306036339886       -6.20990583557588        4.54123235141561
H           16.02807098352088       -8.49560356308901        4.24395147333541
H           14.92932165688000       -8.99313463261429        3.06102819231771
H           13.89980549436203       -7.48135059283328        1.52272056226025
H           13.94486889461372       -5.22321251525754        0.53536792731854
H           12.76700949302833       -3.74972724735630        2.34696012990262
H           10.90005501038343       -1.96552058269772        1.56941637439550
Fe          28.80677181017666       -0.07603303349315       -0.00387726283645
C           32.19058905896226       -0.04008778944733        0.12432961522518
C           31.53707527842626       -1.15279562082758        0.61326052607711
C           32.20733098552053       -2.30905452713591        1.12521137905161
C           31.24699104036118       -3.12530276504584        1.62153892961495
C           29.99223075959502       -2.46035198975685        1.42089129539550
N           30.18042581797244       -1.27348080830905        0.76731314303016
C           28.77093048065682       -2.94503208744539        1.88254583525634
C           28.76263323128852       -4.17795151119450        2.70001858056020
C           28.04177592538947       -5.30402250669414        2.29394800267135
C           28.03760867100137       -6.45708641681370        3.05817277252611
C           28.75413412864472       -6.50684603945865        4.25704021956714
N           28.71134407554123       -7.63994710635221        5.04923241082338
C           29.46691289299639       -5.38041206597514        4.67694709845109
C           29.47631391681663       -4.23603301296907        3.90033944069617
C           27.56402147688453       -2.31494558356940        1.60727536317733
C           26.29539674298178       -2.76357907524605        2.09894114894696
C           25.35353898991840       -1.97041438229551        1.53295162267731
N           27.39770679826239       -1.21935766248178        0.79344631484020
C           26.04987018900949       -1.03042551886134        0.71239540883801
C           25.40080200112760       -0.08764630759777       -0.09437318966338
C           26.08851733262503        0.86660113089424       -0.85441765235606
C           25.43638898108379        1.79527390090346       -1.72233617207019
C           26.40041240796365        2.61607617393819       -2.20644309478651
C           27.63701969861550        2.19282693126431       -1.62042917307168
N           27.43270675720500        1.09264996392089       -0.82250907797557
C           28.84867284747146        2.84800313922033       -1.80298213358540
C           28.87220046514243        4.09249957564507       -2.60202271857657
C           28.10009231231860        5.19605512075559       -2.22910796830478
C           28.12424490523600        6.36245432803869       -2.97218844448531
C           28.91236718414290        6.44472829347968       -4.12342559719133
N           28.96820211507435        7.62144445881739       -4.84810214938519
C           29.68915122203320        5.34635167668424       -4.50227665656548
C           29.66877040650796        4.18821395021833       -3.74649699273469
C           30.04467857066772        2.37388449679171       -1.27026939770500
C           31.30293195520788        3.05135126563821       -1.39396379179075
C           32.24179253446768        2.23567122594087       -0.85782046513336
C           31.55426106753487        1.06907431507316       -0.39429889159917
N           30.20573015655004        1.18573505798960       -0.61053581200964
H           33.27455117127894       -0.03549672276740        0.15243802884888
H           33.27498352006297       -2.45984974015542        1.09891891847810
H           31.36549381573215       -4.09529525272555        2.07674696071484
H           27.49816584944007       -5.27976445985490        1.35585953288815
H           27.48140477476264       -7.32770787718258        2.72816751594532
H           28.47274429146394       -8.49131535378052        4.56653826330784
H           29.47589902240860       -7.73794735299842        5.69786454914051
H           30.01284802263682       -5.40815222712054        5.61364433815640
H           30.02432124059633       -3.36290462324476        4.23724193661608
H           26.15233754014298       -3.57677546115071        2.79162321237431
H           24.28271520472865       -2.00513724163067        1.65350953520915
H           24.37810448380248        1.80398177038530       -1.92838464238759
H           26.29319231543010        3.42994772045874       -2.90492477710645
H           27.49340855244264        5.14361071037818       -1.33173393737885
H           27.53116468678873        7.21688574395357       -2.66495078910360
H           28.17586085096015        8.23295913604130       -4.73398511966519
H           29.27468489691837        7.52251956624221       -5.80259721637255
H           30.30443653096649        5.40496864688204       -5.39347681044421
H           30.25970607520874        3.33376960642528       -4.05779395709483
H           31.43840131935251        4.02777879980153       -1.83003992201922
H           33.30557404271838        2.39285677604289       -0.77455535792134
C           21.42910101119084       -0.07661980856177       -0.15560212268475
C           20.20556581495559       -0.05982583101238       -0.15014967870108
C           22.77608113764975       -0.08758088664324       -0.14899603424130
C           23.99978870657080       -0.09172624443450       -0.13271982461647

          :  Hamiltonian                  GFN1-xTB          :
         :: total energy            -210.690460974433 Eh    ::
         :: gradient norm              0.000360445771 Eh/a0 ::
         :: HOMO-LUMO gap              0.084654961021 eV    ::
         :: SCC energy              -214.051462892169 Eh    ::
         :: repulsion energy           3.470818310065 Eh    ::

    * Orbital Energies and Occupations

         #    Occupation            Energy/Eh            Energy/eV
      -------------------------------------------------------------
         1        2.0000           -0.7802722             -21.2323
       ...           ...                  ...                  ...
       183        2.0000           -0.3991638             -10.8618
       184        2.0000           -0.3972462             -10.8096
       185        2.0000           -0.3972406             -10.8095
       186        2.0000           -0.3880755             -10.5601
       187        2.0000           -0.3880716             -10.5600
       188        2.0000           -0.3841184             -10.4524
       189        1.9918           -0.3786440             -10.3034
       190        1.9916           -0.3786228             -10.3029
       191        1.9567           -0.3770432             -10.2599
       192        1.9556           -0.3770182             -10.2592
       193        1.9514           -0.3769303             -10.2568
       194        1.9513           -0.3769292             -10.2568
       195        1.6560           -0.3749159             -10.2020 (HOMO)
       196        0.3082           -0.3718049             -10.1173 (LUMO)
       197        0.2374           -0.3715182             -10.1095
       198                         -0.3301892              -8.9849
       199                         -0.3183086              -8.6616
       200                         -0.3183011              -8.6614
       201                         -0.3166338              -8.6160
       202                         -0.2911321              -7.9221
       203                         -0.2909185              -7.9163
       204                         -0.2897118              -7.8835
       205                         -0.2828541              -7.6969
       206                         -0.2578170              -7.0156
       ...                                ...                  ...
       422                          1.5187055              41.3261
      -------------------------------------------------------------
                  HL-Gap            0.0031110 Eh            0.0847 eV

Wiberg/Mayer (AO) data.
largest (>0.10) Wiberg bond orders for each atom

     #   Z sym  total        # sym  WBO       # sym  WBO       # sym  WBO
 ---------------------------------------------------------------------------
     1  26 Fe   3.145 --    39 N    0.669     7 N    0.662    19 N    0.661
                            26 N    0.656
     2   6 C    3.921 --    38 C    1.362     3 C    1.362    40 H    0.970
     3   6 C    3.926 --     2 C    1.362     7 N    1.208     4 C    1.176
     4   6 C    3.959 --     5 C    1.645     3 C    1.176    41 H    0.975
     5   6 C    3.962 --     4 C    1.645     6 C    1.178    42 H    0.973
     6   6 C    3.920 --     8 C    1.306     7 N    1.228     5 C    1.178
     7   7 N    3.375 --     6 C    1.228     3 C    1.208     1 Fe   0.662
     8   6 C    3.923 --    16 C    1.329     6 C    1.306     9 C    1.038
     9   6 C    3.985 --    10 C    1.378    15 C    1.377     8 C    1.038
    10   6 C    3.986 --    11 C    1.470     9 C    1.378    43 H    0.972
    11   6 C    3.988 --    10 C    1.470    12 C    1.352    44 H    0.972
    12   6 C    3.949 --    11 C    1.352    14 C    1.351    13 N    1.118
    13   7 N    3.134 --    12 C    1.118    45 H    0.933    46 H    0.933
    14   6 C    3.988 --    15 C    1.471    12 C    1.351    47 H    0.972
    15   6 C    3.986 --    14 C    1.471     9 C    1.377    48 H    0.973
    16   6 C    3.917 --     8 C    1.329    19 N    1.202    17 C    1.182
    17   6 C    3.958 --    18 C    1.635    16 C    1.182    49 H    0.973
    18   6 C    3.960 --    17 C    1.635    20 C    1.190    50 H    0.974
    19   7 N    3.378 --    20 C    1.245    16 C    1.202     1 Fe   0.661
    20   6 C    3.906 --    21 C    1.251    19 N    1.245    18 C    1.190
    21   6 C    3.919 --    20 C    1.251    22 C    1.250   122 C    1.201
    22   6 C    3.907 --    21 C    1.250    26 N    1.245    23 C    1.192
    23   6 C    3.960 --    24 C    1.633    22 C    1.192    51 H    0.974
    24   6 C    3.958 --    23 C    1.633    25 C    1.183    52 H    0.973
    25   6 C    3.917 --    27 C    1.327    26 N    1.203    24 C    1.183
    26   7 N    3.375 --    22 C    1.245    25 C    1.203     1 Fe   0.656
    27   6 C    3.924 --    25 C    1.327    35 C    1.308    28 C    1.038
    28   6 C    3.985 --    29 C    1.377    34 C    1.377    27 C    1.038
    29   6 C    3.986 --    30 C    1.471    28 C    1.377    53 H    0.972
    30   6 C    3.988 --    29 C    1.471    31 C    1.352    54 H    0.972
    31   6 C    3.949 --    30 C    1.352    33 C    1.351    32 N    1.119
    32   7 N    3.135 --    31 C    1.119    56 H    0.933    55 H    0.933
    33   6 C    3.988 --    34 C    1.471    31 C    1.351    57 H    0.972
    34   6 C    3.986 --    33 C    1.471    28 C    1.377    58 H    0.972
    35   6 C    3.920 --    27 C    1.308    39 N    1.227    36 C    1.178
    36   6 C    3.962 --    37 C    1.646    35 C    1.178    59 H    0.973
    37   6 C    3.959 --    36 C    1.646    38 C    1.175    60 H    0.975
    38   6 C    3.926 --     2 C    1.362    39 N    1.208    37 C    1.175
    39   7 N    3.378 --    35 C    1.227    38 C    1.208     1 Fe   0.669
    40   1 H    1.001 --     2 C    0.970
    41   1 H    0.998 --     4 C    0.975
    42   1 H    1.005 --     5 C    0.973
    43   1 H    1.005 --    10 C    0.972
    44   1 H    0.998 --    11 C    0.972
    45   1 H    0.960 --    13 N    0.933
    46   1 H    0.960 --    13 N    0.933
    47   1 H    0.998 --    14 C    0.972
    48   1 H    1.005 --    15 C    0.973
    49   1 H    1.005 --    17 C    0.973
    50   1 H    1.002 --    18 C    0.974
    51   1 H    1.002 --    23 C    0.974
    52   1 H    1.005 --    24 C    0.973
    53   1 H    1.005 --    29 C    0.972
    54   1 H    0.998 --    30 C    0.972
    55   1 H    0.960 --    32 N    0.933
    56   1 H    0.960 --    32 N    0.933
    57   1 H    0.998 --    33 C    0.972
    58   1 H    1.005 --    34 C    0.972
    59   1 H    1.005 --    36 C    0.973
    60   1 H    0.998 --    37 C    0.975
    61  26 Fe   3.146 --    99 N    0.669    67 N    0.662    79 N    0.661
                            86 N    0.656
    62   6 C    3.921 --    98 C    1.362    63 C    1.362   100 H    0.970
    63   6 C    3.926 --    62 C    1.362    67 N    1.208    64 C    1.176
    64   6 C    3.959 --    65 C    1.645    63 C    1.176   101 H    0.975
    65   6 C    3.962 --    64 C    1.645    66 C    1.178   102 H    0.973
    66   6 C    3.920 --    68 C    1.306    67 N    1.228    65 C    1.178
    67   7 N    3.375 --    66 C    1.228    63 C    1.208    61 Fe   0.662
    68   6 C    3.924 --    76 C    1.329    66 C    1.306    69 C    1.038
    69   6 C    3.985 --    70 C    1.378    75 C    1.377    68 C    1.038
    70   6 C    3.986 --    71 C    1.470    69 C    1.378   103 H    0.972
    71   6 C    3.988 --    70 C    1.470    72 C    1.352   104 H    0.972
    72   6 C    3.949 --    71 C    1.352    74 C    1.351    73 N    1.118
    73   7 N    3.134 --    72 C    1.118   105 H    0.933   106 H    0.933
    74   6 C    3.988 --    75 C    1.471    72 C    1.351   107 H    0.972
    75   6 C    3.986 --    74 C    1.471    69 C    1.377   108 H    0.973
    76   6 C    3.917 --    68 C    1.329    79 N    1.202    77 C    1.182
    77   6 C    3.958 --    78 C    1.635    76 C    1.182   109 H    0.973
    78   6 C    3.960 --    77 C    1.635    80 C    1.190   110 H    0.974
    79   7 N    3.378 --    80 C    1.245    76 C    1.202    61 Fe   0.661
    80   6 C    3.906 --    81 C    1.251    79 N    1.245    78 C    1.190
    81   6 C    3.919 --    80 C    1.251    82 C    1.250   124 C    1.201
    82   6 C    3.907 --    81 C    1.250    86 N    1.245    83 C    1.192
    83   6 C    3.960 --    84 C    1.633    82 C    1.192   111 H    0.974
    84   6 C    3.958 --    83 C    1.633    85 C    1.183   112 H    0.973
    85   6 C    3.917 --    87 C    1.327    86 N    1.203    84 C    1.183
    86   7 N    3.375 --    82 C    1.245    85 C    1.203    61 Fe   0.656
    87   6 C    3.924 --    85 C    1.327    95 C    1.308    88 C    1.038
    88   6 C    3.985 --    89 C    1.377    94 C    1.377    87 C    1.038
    89   6 C    3.986 --    90 C    1.471    88 C    1.377   113 H    0.972
    90   6 C    3.988 --    89 C    1.471    91 C    1.352   114 H    0.972
    91   6 C    3.949 --    90 C    1.352    93 C    1.351    92 N    1.119
    92   7 N    3.135 --    91 C    1.119   116 H    0.933   115 H    0.933
    93   6 C    3.988 --    94 C    1.471    91 C    1.351   117 H    0.972
    94   6 C    3.986 --    93 C    1.471    88 C    1.377   118 H    0.972
    95   6 C    3.920 --    87 C    1.308    99 N    1.227    96 C    1.178
    96   6 C    3.962 --    97 C    1.646    95 C    1.178   119 H    0.973
    97   6 C    3.959 --    96 C    1.646    98 C    1.175   120 H    0.975
    98   6 C    3.926 --    62 C    1.362    99 N    1.208    97 C    1.175
    99   7 N    3.378 --    95 C    1.227    98 C    1.208    61 Fe   0.669
   100   1 H    1.001 --    62 C    0.970
   101   1 H    0.998 --    64 C    0.975
   102   1 H    1.005 --    65 C    0.973
   103   1 H    1.005 --    70 C    0.972
   104   1 H    0.998 --    71 C    0.972
   105   1 H    0.960 --    73 N    0.933
   106   1 H    0.960 --    73 N    0.933
   107   1 H    0.998 --    74 C    0.972
   108   1 H    1.005 --    75 C    0.973
   109   1 H    1.005 --    77 C    0.973
   110   1 H    1.002 --    78 C    0.974
   111   1 H    1.002 --    83 C    0.974
   112   1 H    1.005 --    84 C    0.973
   113   1 H    1.005 --    89 C    0.972
   114   1 H    0.998 --    90 C    0.972
   115   1 H    0.960 --    92 N    0.933
   116   1 H    0.960 --    92 N    0.933
   117   1 H    0.998 --    93 C    0.972
   118   1 H    1.005 --    94 C    0.972
   119   1 H    1.005 --    96 C    0.973
   120   1 H    0.998 --    97 C    0.975
   121   6 C    3.922 --   122 C    2.451   123 C    1.323
   122   6 C    3.914 --   121 C    2.451    21 C    1.201   124 C    0.195
   123   6 C    3.922 --   124 C    2.451   121 C    1.323
   124   6 C    3.914 --   123 C    2.451    81 C    1.201   122 C    0.195
 ---------------------------------------------------------------------------

           -------------------------------------------------
          | TOTAL ENERGY             -210.690460974433 Eh   |
          | GRADIENT NORM               0.000360445771 Eh/α |
          | HOMO-LUMO GAP               0.084654961021 eV   |
           -------------------------------------------------

 * finished run on 2022/07/29 at 19:02:47.354
