   * xtb version 6.5.1 (b24c23e) compiled by 'conda@728c89f4b128' on 2022-07-12
          program call               : xtb Ni_C2Py_C6_3.xyz --gfn 1 --opt -T 48

   ID    Z sym.   atoms
    1   28 Ni     1, 59, 129
    2    6 C      2-6, 8-13, 15-19, 21-26, 28-33, 35-40, 60-64, 66-71, 73-77,
                  79-84, 86-91, 93-98, 117-128, 130-134, 136-141, 143-147,
                  149-154, 156-161, 163-168
    3    7 N      7, 14, 20, 27, 34, 41, 65, 72, 78, 85, 92, 99, 135, 142,
                  148, 155, 162, 169
    4    1 H      42-58, 100-116, 170-185
########################################################################
[WARNING] Please study the warnings concerning your input carefully
-1- prog_main_parseArguments: Unknown option '-T' provided
########################################################################

          :  Hamiltonian                  GFN1-xTB          :
 * total energy  :  -336.0096356 Eh     change       -0.7744973E-08 Eh
 * total energy  :  -336.5918103 Eh     change       -0.5821747E+00 Eh
 * total energy  :  -336.7582357 Eh     change       -0.1664254E+00 Eh
 * total energy  :  -336.8626394 Eh     change       -0.1044036E+00 Eh
 * total energy  :  -336.9173442 Eh     change       -0.5470481E-01 Eh
 * total energy  :  -336.9544758 Eh     change       -0.3713156E-01 Eh
 * total energy  :  -336.9817933 Eh     change       -0.2731750E-01 Eh
 * total energy  :  -337.0028379 Eh     change       -0.2104460E-01 Eh
 * total energy  :  -337.0195797 Eh     change       -0.1674183E-01 Eh
 * total energy  :  -337.0333365 Eh     change       -0.1375680E-01 Eh
 * total energy  :  -337.1062215 Eh     change       -0.1452899E-04 Eh
 * total energy  :  -337.1062366 Eh     change       -0.1509147E-04 Eh
 * total energy  :  -337.1062346 Eh     change        0.2010434E-05 Eh
 * total energy  :  -337.1062454 Eh     change       -0.1088120E-04 Eh
 * total energy  :  -337.1062564 Eh     change       -0.1098269E-04 Eh
 * total energy  :  -337.1062664 Eh     change       -0.9961550E-05 Eh
 * total energy  :  -337.1062788 Eh     change       -0.1241080E-04 Eh
 * total energy  :  -337.1062844 Eh     change       -0.5583920E-05 Eh
 * total energy  :  -337.1062863 Eh     change       -0.1961396E-05 Eh
   *** GEOMETRY OPTIMIZATION CONVERGED AFTER 94 ITERATIONS ***

 final structure:
================
185
 xtb: 6.5.1 (b24c23e)
Ni          29.77065267570123       -0.07059909563880       -0.05497576059345
C           26.36627928678047       -0.05176271408351       -0.12012192592699
C           26.99959611710937        0.78571527018811        0.77346255737815
C           26.30230801298136        1.65300129643656        1.67293741634036
C           27.24688139740913        2.32320225313400        2.37465116312634
C           28.51559681736007        1.86431571933005        1.89795184831242
N           28.35973240085419        0.91844394390138        0.92314027130810
C           29.73381503690412        2.35641971129815        2.36773833244529
C           29.71866749333775        3.35326774209160        3.36805252411607
C           29.70338048798941        4.20989591387978        4.22707392291454
C           29.68623180061142        5.20913167437845        5.22733186093232
C           30.87196177122245        5.78295570193723        5.70045392285319
C           30.80041741348159        6.75769055083982        6.67970975103268
N           29.65215946047032        7.18211109856307        7.20106990249558
C           28.52056713028696        6.64129276355531        6.75672850791111
C           28.48277312775003        5.66148696501461        5.78065823118281
C           30.96514392801928        1.91151267807852        1.88633968866688
C           32.21561244760184        2.42353481571528        2.35000709747577
C           33.18281199390358        1.75328643892661        1.67765974332854
N           31.15575148672430        0.94024791223798        0.93687563759399
C           32.51620024262282        0.83498041664798        0.81049005723754
C           33.19548373641137       -0.05466996553977       -0.02446008232720
C           32.53901678846695       -0.95916190847355       -0.86230532283290
C           33.22893002449874       -1.88448615968934       -1.70349038654792
C           32.27962466897164       -2.58085462796679       -2.37473964451762
C           31.01664002100364       -2.07362675752569       -1.94083729617334
N           31.18191066134972       -1.08298202880030       -1.00667178954926
C           29.79850739513691       -2.53250132388788       -2.44242529449273
C           29.81109162005512       -3.54928088358019       -3.42255679425560
C           29.82261317167552       -4.42280648181928       -4.26446683470827
C           29.84016138954318       -5.43883165227805       -5.24770240397820
C           31.04525021256611       -5.98937218123395       -5.69920234081338
C           31.00939779640396       -6.98118036612523       -6.66310699983104
N           29.87806549514114       -7.44387655892964       -7.18887727178163
C           28.72825505306518       -6.92569841095145       -6.76482743410384
C           28.65475254921492       -5.93130275309750       -5.80565199739420
C           28.56856328843047       -2.02510591143655       -2.02220781894704
C           27.31386097365835       -2.47660028743283       -2.54110713452799
C           26.35134988366502       -1.77754013531201       -1.89403162292624
C           27.02373231144215       -0.90466755253329       -0.98106763344772
N           28.38678046085984       -1.05902817860086       -1.07203330988461
H           25.28268670576340       -0.04328615268702       -0.14319311804703
H           25.22863612695943        1.72482910472761        1.74275594469558
H           27.11614678334457        3.06583623995050        3.14531161930048
H           31.82893636005257        5.46668865323566        5.30330663885289
H           31.70455795094585        7.22032619313594        7.06486321165284
H           27.60205445944720        7.01052677898887        7.20378995558082
H           27.53835269543309        5.24820642595872        5.44771229657257
H           32.32274728598309        3.19585040066158        3.09446185191816
H           34.25317355158879        1.85694973252419        1.75271808611623
H           34.30133426074747       -1.97703198773956       -1.76158561556262
H           32.40673288698881       -3.36631583966696       -3.10209865266847
H           31.98946166811847       -5.64169414569473       -5.29778157693221
H           31.92927939706458       -7.42595862135253       -7.03164373322459
H           27.82441182909121       -7.32618768862973       -7.21487837239566
H           27.69642547034825       -5.53753741290620       -5.48923940801532
H           27.20407557164963       -3.23249738183263       -3.30208863675161
H           25.28053135324189       -1.83508763847236       -2.00740426243051
Ni          61.76333168345253       -0.12579769385062       -0.08625678329030
C           65.16563423712071       -0.23509293855861       -0.17491572174585
C           64.47524483095178       -1.39691455519575       -0.44779804320146
C           65.11297086668141       -2.63762809215645       -0.76629676562501
C           64.12375729302185       -3.53542355992569       -0.98824393434657
C           62.88775660871749       -2.83909379381101       -0.80201138837127
N           63.10726218736637       -1.53140335495738       -0.46874413901034
C           61.63876288209151       -3.44228775420694       -0.95289018297030
C           61.58492700460832       -4.80679905493492       -1.31330917568352
C           61.53595403945002       -5.97889083434329       -1.62278839576749
C           61.47034211165579       -7.34484392600530       -1.98229848167431
C           60.23984882923423       -7.98785784290260       -2.16054064596134
C           60.22755287578980       -9.32621334651039       -2.51077234220836
N           61.33526881214617      -10.04159642313575       -2.68874588852056
C           62.50889918754417       -9.43753473321703       -2.52129342133989
C           62.63055806848236       -8.10435026856467       -2.17178817183613
C           60.43972360445964       -2.75599620894861       -0.76008513508060
C           59.15797769065522       -3.36908091859393       -0.90759844163199
C           58.23688538851962       -2.41359445554108       -0.63335294946639
N           60.31356387922354       -1.43786241137254       -0.40218009660823
C           58.96259052461490       -1.22381566740853       -0.32090983032204
C           58.34151765009035       -0.02015201067957        0.02112705494755
C           59.05474641108577        1.14210795832900        0.32144352439536
C           58.42423075642524        2.37404066501308        0.67400315268123
C           59.41747318611791        3.27275805627302        0.88036235129388
C           60.64745602910985        2.58289125044328        0.65200360719470
N           60.41875136890742        1.27356830434573        0.31344400688447
C           61.89593972848102        3.19601051988220        0.75762385491068
C           61.95130709022704        4.56432501095833        1.10296986360348
C           62.00283494815739        5.74038485214968        1.39662054718002
C           62.06522988822869        7.11091797877519        1.73875882391662
C           60.90587324381367        7.84346151589854        2.01841669899948
C           61.02245586311522        9.18185848153467        2.34904608395803
N           62.19044908244256        9.81573292874627        2.41541975970665
C           63.29729276213670        9.12613050483281        2.15128046001565
C           63.28981405332653        7.78492459247576        1.81182602733511
C           63.09402758950679        2.51470289064767        0.53979917519124
C           64.37999946864898        3.13214833040581        0.65181635096904
C           65.29718175630624        2.16966192863374        0.39463042535323
C           64.56599867191758        0.96966034929880        0.12483325104878
N           63.21223325722487        1.19243631566627        0.21300235941308
H           66.24861903487491       -0.27029629802436       -0.20130408022297
H           66.18072363159875       -2.78155999388488       -0.81101101217553
H           64.20366937142217       -4.57713649236566       -1.25466897831196
H           59.31355097049396       -7.44261043960213       -2.02543359296435
H           59.28712876366919       -9.85012717794517       -2.65550072659622
H           63.39235265748108      -10.05069925305464       -2.67428244126718
H           63.60694994782643       -7.65239066223072       -2.04559066112237
H           58.99987661921566       -4.39889271567185       -1.18442388711381
H           57.16182158654762       -2.49205546999914       -0.63749445942991
H           57.35824110864467        2.51600184242292        0.74882962432330
H           59.34092039482320        4.31078053693203        1.16110605784738
H           59.93411973906441        7.36656804550370        1.97607162839989
H           60.13951004079350        9.77440179992472        2.57070110551771
H           64.23298392892599        9.67418421333910        2.21433222414341
H           64.21530066830010        7.26138433537102        1.60454392163824
H           64.54011774698816        4.16955827114178        0.89806449120439
H           66.37283592160625        2.24484482063184        0.38345036875815
C           38.39849907943927       -0.09202651812182       -0.04867025550316
C           37.17162506942763       -0.06428602065984       -0.02687433221005
C           35.82541136048668       -0.04715664788741       -0.01679189072910
C           34.60255503717448       -0.04632742005114       -0.01810573047012
C           39.74297133057956       -0.15141137235357       -0.08454045019640
C           40.96285683440156       -0.22315078777634       -0.13398450055976
C           54.36671667282972        0.02999666381022        0.07069758695350
C           53.13998843712967       -0.00494683561479        0.05102677419514
C           51.79645504217702       -0.07524348371985        0.00768590126023
C           50.57802209524218       -0.16185661525049       -0.05374153689275
C           55.71288259896961        0.03596841340695        0.07125739950096
C           56.93557973629734        0.01874277967307        0.05569956234806
Ni          45.77459893162737       -0.52913960500278       -0.33359185314081
C           42.36329414622611       -0.33059631230220       -0.20586142215245
C           43.03140830719948        0.30043063252553       -1.25880778753053
C           42.35758105174327        0.99174159893121       -2.31102316300340
C           43.30949256226919        1.36823123260159       -3.20032759326403
C           44.56103666456195        0.93162458755668       -2.66900423433851
N           44.38338753866097        0.27513340938776       -1.47868061159646
C           45.78892696557347        1.20654788023926       -3.27258759546797
C           45.79757841166058        1.86405138923916       -4.52219563624269
C           45.81170100304136        2.42204478925451       -5.59946489483447
C           45.82563983746676        3.07605947259844       -6.85297781126591
C           47.02855191607534        3.35323082227006       -7.51257158028356
C           46.98842861300599        3.99457313764876       -8.73782775201978
N           45.85506934047216        4.36616757367853       -9.32740623849464
C           44.70736005580113        4.10737933764245       -8.70607680975753
C           44.63805478940700        3.47083634291298       -7.47961738442935
C           47.01101048209537        0.92227602747709       -2.66160311373808
C           48.26873411890202        1.34812931994270       -3.18727093482421
C           49.21061673459269        0.98640673110968       -2.28143696118484
N           47.17593467635364        0.28183473790950       -1.46067103309163
C           48.52482998220033        0.31424780078822       -1.22460047018760
C           49.18050035742795       -0.28692697255736       -0.14650781337683
C           48.51438053118263       -1.08704748594508        0.78582188233257
C           49.18892913978889       -1.84498898802581        1.79060643429255
C           48.24177327844351       -2.58079253855647        2.42323778608704
C           46.99164854718874       -2.24243822936843        1.82151276243166
N           47.16588625105896       -1.32646381897410        0.81657445297306
C           45.76674455185682       -2.74600801197623        2.26155807437088
C           45.76363064204449       -3.72300401511180        3.28099605450666
C           45.76042430695207       -4.57219119924834        4.14755536591378
C           45.74813721412734       -5.56060618885021        5.15856073353647
C           44.54497284978594       -6.09641448212889        5.63246410565755
C           44.58552339368160       -7.06287854793167        6.62160595997915
N           45.71959868218214       -7.51383269326340        7.15162956242688
C           46.86751209325695       -7.00894433796233        6.70694472953281
C           46.93641586565738       -6.04009608390136        5.72159114414961
C           44.54231552972698       -2.27793703827271        1.78251129710733
C           43.28434803683107       -2.65485424303115        2.34375852496409
C           42.33792220460175       -1.93098443714746        1.69651486810955
C           43.02168579769884       -1.14155600848512        0.72269650479259
N           44.37365269591606       -1.35374199612119        0.78407098650308
H           41.29173058917946        1.14610498775154       -2.35787224380362
H           43.19166126036335        1.90573267957356       -4.12737982740128
H           47.97435434049908        3.06808554512690       -7.06801072185561
H           47.90637818205762        4.22091946706022       -9.27247055260633
H           43.80185766788306        4.42497815567572       -9.21494316533076
H           43.68154850706700        3.27982256365182       -7.00839953754074
H           48.39722160827056        1.87007418423113       -4.12173666704281
H           50.27698333512758        1.13958121664736       -2.31943086785699
H           50.25233175585356       -1.81975905404020        1.96560971784381
H           48.36155899707711       -3.28024959216027        3.23479396196552
H           43.59878273330486       -5.75747989962935        5.22821631927842
H           43.66739496283849       -7.49648012487855        7.00741995178329
H           47.77358730405714       -7.39934833122548        7.16130933915532
H           47.89324717853562       -5.65643634839304        5.38870596404925
H           43.15872368566826       -3.36913634137908        3.14138044058721
H           41.26995556886080       -1.93264539676314        1.84313523314120

          :  Hamiltonian                  GFN1-xTB          :
         :: total energy            -337.106286350189 Eh    ::
         :: gradient norm              0.000704719458 Eh/a0 ::
         :: HOMO-LUMO gap              1.208367258727 eV    ::
         :: SCC energy              -342.955415421958 Eh    ::
         :: repulsion energy           6.004905696954 Eh    ::

    * Orbital Energies and Occupations

         #    Occupation            Energy/Eh            Energy/eV
      -------------------------------------------------------------
         1        2.0000           -0.7913784             -21.5345
       ...           ...                  ...                  ...
       301        2.0000           -0.4067473             -11.0682
       302        2.0000           -0.4067252             -11.0676
       303        2.0000           -0.4063703             -11.0579
       304        2.0000           -0.4063419             -11.0571
       305        2.0000           -0.4062391             -11.0543
       306        2.0000           -0.4061915             -11.0530
       307        2.0000           -0.4053217             -11.0294
       308        2.0000           -0.4052912             -11.0285
       309        2.0000           -0.4051669             -11.0252
       310        2.0000           -0.4051367             -11.0243
       311        2.0000           -0.3959233             -10.7736
       312        2.0000           -0.3952082             -10.7542
       313        2.0000           -0.3926748             -10.6852 (HOMO)
       314                         -0.3482681              -9.4769 (LUMO)
       315                         -0.3473616              -9.4522
       316                         -0.3463252              -9.4240
       317                         -0.3463078              -9.4235
       318                         -0.3431645              -9.3380
       319                         -0.3424416              -9.3183
       320                         -0.3391481              -9.2287
       321                         -0.3390528              -9.2261
       322                         -0.3380516              -9.1989
       323                         -0.3239348              -8.8147
       324                         -0.3175597              -8.6412
       ...                                ...                  ...
       655                          1.5699671              42.7210
      -------------------------------------------------------------
                  HL-Gap            0.0444067 Eh            1.2084 eV

Wiberg/Mayer (AO) data.
largest (>0.10) Wiberg bond orders for each atom

     #   Z sym  total        # sym  WBO       # sym  WBO       # sym  WBO
 ---------------------------------------------------------------------------
     1  28 Ni   2.990 --     7 N    0.660    41 N    0.660    27 N    0.658
                            20 N    0.658
     2   6 C    3.935 --    40 C    1.366     3 C    1.366    42 H    0.970
     3   6 C    3.915 --     2 C    1.366     7 N    1.205     4 C    1.177
     4   6 C    3.959 --     5 C    1.644     3 C    1.177    43 H    0.975
     5   6 C    3.962 --     4 C    1.644     6 C    1.184    44 H    0.973
     6   6 C    3.911 --     8 C    1.274     7 N    1.241     5 C    1.184
     7   7 N    3.401 --     6 C    1.241     3 C    1.205     1 Ni   0.660
     8   6 C    3.938 --    17 C    1.279     6 C    1.274     9 C    1.156
     9   6 C    3.958 --    10 C    2.628     8 C    1.156
    10   6 C    3.935 --     9 C    2.628    11 C    1.140
    11   6 C    3.987 --    12 C    1.351    16 C    1.351    10 C    1.140
    12   6 C    3.974 --    13 C    1.456    11 C    1.351    45 H    0.974
                            15 C    0.104
    13   6 C    3.973 --    12 C    1.456    14 N    1.407    46 H    0.972
                            16 C    0.104
    14   7 N    2.995 --    15 C    1.407    13 C    1.407
    15   6 C    3.973 --    16 C    1.457    14 N    1.407    47 H    0.972
                            12 C    0.104
    16   6 C    3.974 --    15 C    1.457    11 C    1.351    48 H    0.974
                            13 C    0.104
    17   6 C    3.905 --     8 C    1.279    20 N    1.225    18 C    1.192
    18   6 C    3.959 --    19 C    1.631    17 C    1.192    49 H    0.973
    19   6 C    3.960 --    18 C    1.631    21 C    1.193    50 H    0.973
    20   7 N    3.404 --    21 C    1.229    17 C    1.225     1 Ni   0.658
    21   6 C    3.896 --    22 C    1.268    20 N    1.229    19 C    1.193
    22   6 C    3.942 --    21 C    1.268    23 C    1.267   120 C    1.176
    23   6 C    3.896 --    22 C    1.267    27 N    1.229    24 C    1.193
    24   6 C    3.960 --    25 C    1.631    23 C    1.193    51 H    0.973
    25   6 C    3.959 --    24 C    1.631    26 C    1.192    52 H    0.973
    26   6 C    3.905 --    28 C    1.279    27 N    1.225    25 C    1.192
    27   7 N    3.404 --    23 C    1.229    26 C    1.225     1 Ni   0.658
    28   6 C    3.938 --    26 C    1.279    37 C    1.274    29 C    1.156
    29   6 C    3.958 --    30 C    2.628    28 C    1.156
    30   6 C    3.935 --    29 C    2.628    31 C    1.140
    31   6 C    3.987 --    36 C    1.351    32 C    1.351    30 C    1.140
    32   6 C    3.974 --    33 C    1.457    31 C    1.351    53 H    0.974
                            35 C    0.104
    33   6 C    3.973 --    32 C    1.457    34 N    1.407    54 H    0.972
                            36 C    0.104
    34   7 N    2.995 --    35 C    1.407    33 C    1.407
    35   6 C    3.973 --    36 C    1.456    34 N    1.407    55 H    0.972
                            32 C    0.104
    36   6 C    3.974 --    35 C    1.456    31 C    1.351    56 H    0.974
                            33 C    0.104
    37   6 C    3.911 --    28 C    1.274    41 N    1.241    38 C    1.184
    38   6 C    3.962 --    39 C    1.644    37 C    1.184    57 H    0.973
    39   6 C    3.959 --    38 C    1.644    40 C    1.177    58 H    0.975
    40   6 C    3.915 --     2 C    1.366    41 N    1.205    39 C    1.177
    41   7 N    3.401 --    37 C    1.241    40 C    1.205     1 Ni   0.660
    42   1 H    1.000 --     2 C    0.970
    43   1 H    0.997 --     4 C    0.975
    44   1 H    1.002 --     5 C    0.973
    45   1 H    1.002 --    12 C    0.974
    46   1 H    1.013 --    13 C    0.972
    47   1 H    1.013 --    15 C    0.972
    48   1 H    1.002 --    16 C    0.974
    49   1 H    1.002 --    18 C    0.973
    50   1 H    1.001 --    19 C    0.973
    51   1 H    1.001 --    24 C    0.973
    52   1 H    1.003 --    25 C    0.973
    53   1 H    1.002 --    32 C    0.974
    54   1 H    1.013 --    33 C    0.972
    55   1 H    1.013 --    35 C    0.972
    56   1 H    1.002 --    36 C    0.974
    57   1 H    1.002 --    38 C    0.973
    58   1 H    0.997 --    39 C    0.975
    59  28 Ni   2.990 --    99 N    0.660    65 N    0.660    78 N    0.658
                            85 N    0.658
    60   6 C    3.934 --    98 C    1.366    61 C    1.366   100 H    0.970
    61   6 C    3.915 --    60 C    1.366    65 N    1.205    62 C    1.177
    62   6 C    3.959 --    63 C    1.644    61 C    1.177   101 H    0.975
    63   6 C    3.962 --    62 C    1.644    64 C    1.184   102 H    0.973
    64   6 C    3.911 --    66 C    1.274    65 N    1.241    63 C    1.184
    65   7 N    3.401 --    64 C    1.241    61 C    1.205    59 Ni   0.660
    66   6 C    3.938 --    75 C    1.279    64 C    1.274    67 C    1.156
    67   6 C    3.958 --    68 C    2.628    66 C    1.156
    68   6 C    3.935 --    67 C    2.628    69 C    1.140
    69   6 C    3.987 --    74 C    1.351    70 C    1.351    68 C    1.140
    70   6 C    3.974 --    71 C    1.457    69 C    1.351   103 H    0.974
                            73 C    0.104
    71   6 C    3.973 --    70 C    1.457    72 N    1.407   104 H    0.972
                            74 C    0.104
    72   7 N    2.995 --    73 C    1.408    71 C    1.407
    73   6 C    3.973 --    74 C    1.456    72 N    1.408   105 H    0.972
                            70 C    0.104
    74   6 C    3.974 --    73 C    1.456    69 C    1.351   106 H    0.974
                            71 C    0.104
    75   6 C    3.905 --    66 C    1.279    78 N    1.224    76 C    1.192
    76   6 C    3.959 --    77 C    1.631    75 C    1.192   107 H    0.973
    77   6 C    3.960 --    76 C    1.631    79 C    1.193   108 H    0.973
    78   7 N    3.404 --    79 C    1.229    75 C    1.224    59 Ni   0.658
    79   6 C    3.896 --    80 C    1.267    78 N    1.229    77 C    1.193
    80   6 C    3.942 --    81 C    1.268    79 C    1.267   128 C    1.177
    81   6 C    3.896 --    80 C    1.268    85 N    1.229    82 C    1.193
    82   6 C    3.960 --    83 C    1.631    81 C    1.193   109 H    0.973
    83   6 C    3.959 --    82 C    1.631    84 C    1.192   110 H    0.973
    84   6 C    3.905 --    86 C    1.279    85 N    1.225    83 C    1.192
    85   7 N    3.404 --    81 C    1.229    84 C    1.225    59 Ni   0.658
    86   6 C    3.938 --    84 C    1.279    95 C    1.274    87 C    1.156
    87   6 C    3.958 --    88 C    2.628    86 C    1.156
    88   6 C    3.935 --    87 C    2.628    89 C    1.140
    89   6 C    3.987 --    90 C    1.351    94 C    1.351    88 C    1.140
    90   6 C    3.974 --    91 C    1.456    89 C    1.351   111 H    0.974
                            93 C    0.104
    91   6 C    3.973 --    90 C    1.456    92 N    1.407   112 H    0.972
                            94 C    0.104
    92   7 N    2.995 --    91 C    1.407    93 C    1.407
    93   6 C    3.973 --    94 C    1.457    92 N    1.407   113 H    0.972
                            90 C    0.104
    94   6 C    3.974 --    93 C    1.457    89 C    1.351   114 H    0.974
                            91 C    0.104
    95   6 C    3.911 --    86 C    1.274    99 N    1.241    96 C    1.184
    96   6 C    3.962 --    97 C    1.644    95 C    1.184   115 H    0.973
    97   6 C    3.959 --    96 C    1.644    98 C    1.177   116 H    0.975
    98   6 C    3.915 --    60 C    1.366    99 N    1.205    97 C    1.177
    99   7 N    3.401 --    95 C    1.241    98 C    1.205    59 Ni   0.660
   100   1 H    1.000 --    60 C    0.970
   101   1 H    0.997 --    62 C    0.975
   102   1 H    1.002 --    63 C    0.973
   103   1 H    1.002 --    70 C    0.974
   104   1 H    1.013 --    71 C    0.972
   105   1 H    1.013 --    73 C    0.972
   106   1 H    1.002 --    74 C    0.974
   107   1 H    1.003 --    76 C    0.973
   108   1 H    1.002 --    77 C    0.973
   109   1 H    1.001 --    82 C    0.973
   110   1 H    1.002 --    83 C    0.973
   111   1 H    1.002 --    90 C    0.974
   112   1 H    1.013 --    91 C    0.972
   113   1 H    1.013 --    93 C    0.972
   114   1 H    1.002 --    94 C    0.974
   115   1 H    1.003 --    96 C    0.973
   116   1 H    0.997 --    97 C    0.975
   117   6 C    3.926 --   118 C    2.382   121 C    1.325   120 C    0.191
   118   6 C    3.925 --   117 C    2.382   119 C    1.324   122 C    0.190
   119   6 C    3.938 --   120 C    2.464   118 C    1.324
   120   6 C    3.890 --   119 C    2.464    22 C    1.176   117 C    0.191
   121   6 C    3.936 --   122 C    2.462   117 C    1.325
   122   6 C    3.891 --   121 C    2.462   130 C    1.179   118 C    0.190
   123   6 C    3.925 --   124 C    2.381   127 C    1.325   126 C    0.191
   124   6 C    3.926 --   123 C    2.381   125 C    1.325   128 C    0.191
   125   6 C    3.936 --   126 C    2.461   124 C    1.325
   126   6 C    3.891 --   125 C    2.461   150 C    1.180   123 C    0.191
   127   6 C    3.938 --   128 C    2.463   123 C    1.325
   128   6 C    3.890 --   127 C    2.463    80 C    1.177   124 C    0.191
   129  28 Ni   2.986 --   148 N    0.658   169 N    0.658   135 N    0.658
                           155 N    0.658
   130   6 C    3.934 --   131 C    1.265   168 C    1.265   122 C    1.179
   131   6 C    3.896 --   130 C    1.265   135 N    1.229   132 C    1.194
   132   6 C    3.959 --   133 C    1.628   131 C    1.194   170 H    0.973
   133   6 C    3.959 --   132 C    1.628   134 C    1.194   171 H    0.973
   134   6 C    3.903 --   136 C    1.275   135 N    1.225   133 C    1.194
   135   7 N    3.401 --   131 C    1.229   134 C    1.225   129 Ni   0.658
   136   6 C    3.934 --   145 C    1.276   134 C    1.275   137 C    1.157
   137   6 C    3.958 --   138 C    2.627   136 C    1.157
   138   6 C    3.934 --   137 C    2.627   139 C    1.140
   139   6 C    3.987 --   144 C    1.351   140 C    1.351   138 C    1.140
   140   6 C    3.974 --   141 C    1.456   139 C    1.351   172 H    0.974
                           143 C    0.104
   141   6 C    3.973 --   140 C    1.456   142 N    1.407   173 H    0.972
                           144 C    0.104
   142   7 N    2.995 --   141 C    1.407   143 C    1.407
   143   6 C    3.973 --   144 C    1.456   142 N    1.407   174 H    0.972
                           140 C    0.104
   144   6 C    3.974 --   143 C    1.456   139 C    1.351   175 H    0.974
                           141 C    0.104
   145   6 C    3.903 --   136 C    1.276   148 N    1.224   146 C    1.193
   146   6 C    3.959 --   147 C    1.628   145 C    1.193   176 H    0.973
   147   6 C    3.959 --   146 C    1.628   149 C    1.194   177 H    0.973
   148   7 N    3.401 --   149 C    1.230   145 C    1.224   129 Ni   0.658
   149   6 C    3.896 --   150 C    1.265   148 N    1.230   147 C    1.194
   150   6 C    3.934 --   151 C    1.265   149 C    1.265   126 C    1.180
   151   6 C    3.896 --   150 C    1.265   155 N    1.229   152 C    1.194
   152   6 C    3.959 --   153 C    1.628   151 C    1.194   178 H    0.973
   153   6 C    3.959 --   152 C    1.628   154 C    1.194   179 H    0.973
   154   6 C    3.903 --   156 C    1.275   155 N    1.225   153 C    1.194
   155   7 N    3.401 --   151 C    1.229   154 C    1.225   129 Ni   0.658
   156   6 C    3.934 --   165 C    1.275   154 C    1.275   157 C    1.157
   157   6 C    3.958 --   158 C    2.627   156 C    1.157
   158   6 C    3.934 --   157 C    2.627   159 C    1.140
   159   6 C    3.987 --   164 C    1.351   160 C    1.351   158 C    1.140
   160   6 C    3.974 --   161 C    1.456   159 C    1.351   180 H    0.974
                           163 C    0.104
   161   6 C    3.973 --   160 C    1.456   162 N    1.407   181 H    0.972
                           164 C    0.104
   162   7 N    2.995 --   163 C    1.408   161 C    1.407
   163   6 C    3.973 --   164 C    1.456   162 N    1.408   182 H    0.972
                           160 C    0.104
   164   6 C    3.974 --   163 C    1.456   159 C    1.351   183 H    0.974
                           161 C    0.104
   165   6 C    3.903 --   156 C    1.275   169 N    1.224   166 C    1.193
   166   6 C    3.959 --   167 C    1.628   165 C    1.193   184 H    0.973
   167   6 C    3.959 --   166 C    1.628   168 C    1.194   185 H    0.973
   168   6 C    3.896 --   130 C    1.265   169 N    1.229   167 C    1.194
   169   7 N    3.401 --   168 C    1.229   165 C    1.224   129 Ni   0.658
   170   1 H    1.001 --   132 C    0.973
   171   1 H    1.002 --   133 C    0.973
   172   1 H    1.002 --   140 C    0.974
   173   1 H    1.013 --   141 C    0.972
   174   1 H    1.013 --   143 C    0.972
   175   1 H    1.002 --   144 C    0.974
   176   1 H    1.002 --   146 C    0.973
   177   1 H    1.001 --   147 C    0.973
   178   1 H    1.001 --   152 C    0.973
   179   1 H    1.002 --   153 C    0.973
   180   1 H    1.002 --   160 C    0.974
   181   1 H    1.013 --   161 C    0.972
   182   1 H    1.013 --   163 C    0.972
   183   1 H    1.002 --   164 C    0.974
   184   1 H    1.002 --   166 C    0.973
   185   1 H    1.001 --   167 C    0.973
 ---------------------------------------------------------------------------

           -------------------------------------------------
          | TOTAL ENERGY             -337.106286350189 Eh   |
          | GRADIENT NORM               0.000704719458 Eh/α |
          | HOMO-LUMO GAP               1.208367258727 eV   |
           -------------------------------------------------

 * finished run on 2022/07/30 at 04:56:19.403
