   * xtb version 6.5.1 (b24c23e) compiled by 'conda@728c89f4b128' on 2022-07-12
          program call               : xtb Cu_Ph3Me_C8_2.xyz --gfn 1 --opt -T 48

   ID    Z sym.   atoms
    1   29 Cu     1, 75
    2    6 C      2-6, 8-20, 22-27, 29-42, 76-80, 82-94, 96-101, 103-116,
                  149-156
    3    7 N      7, 21, 28, 43, 81, 95, 102, 117
    4    1 H      44-74, 118-148
########################################################################
[WARNING] Please study the warnings concerning your input carefully
-1- prog_main_parseArguments: Unknown option '-T' provided
########################################################################

          :  Hamiltonian                  GFN1-xTB          :
 * total energy  :  -244.8974607 Eh     change       -0.2012257E-09 Eh
 * total energy  :  -245.3230648 Eh     change       -0.4256042E+00 Eh
 * total energy  :  -245.4163432 Eh     change       -0.9327836E-01 Eh
 * total energy  :  -245.4500638 Eh     change       -0.3372060E-01 Eh
 * total energy  :  -245.4608188 Eh     change       -0.1075500E-01 Eh
 * total energy  :  -245.4673716 Eh     change       -0.6552780E-02 Eh
 * total energy  :  -245.4719274 Eh     change       -0.4555790E-02 Eh
 * total energy  :  -245.4750040 Eh     change       -0.3076620E-02 Eh
 * total energy  :  -245.4765023 Eh     change       -0.1498308E-02 Eh
 * total energy  :  -245.4782837 Eh     change       -0.1781432E-02 Eh
 * total energy  :  -245.4843258 Eh     change       -0.1537976E-04 Eh
 * total energy  :  -245.4843317 Eh     change       -0.5942023E-05 Eh
 * total energy  :  -245.4843306 Eh     change        0.1089454E-05 Eh
 * total energy  :  -245.4843405 Eh     change       -0.9873150E-05 Eh
 * total energy  :  -245.4843303 Eh     change        0.1021754E-04 Eh
 * total energy  :  -245.4843473 Eh     change       -0.1706221E-04 Eh
 * total energy  :  -245.4843433 Eh     change        0.4012162E-05 Eh
 * total energy  :  -245.4843512 Eh     change       -0.7842275E-05 Eh
 * total energy  :  -245.4843528 Eh     change       -0.1681604E-05 Eh
   *** GEOMETRY OPTIMIZATION CONVERGED AFTER 51 ITERATIONS ***

 final structure:
================
156
 xtb: 6.5.1 (b24c23e)
Cu          13.20621158345233        0.03731590745627        0.01195919855215
C            9.79252034101792        0.12024412112536       -0.05135320787249
C           10.43726378082319        1.24601665799142        0.44025671374952
C            9.77648204461889        2.42590241058209        0.92277853946787
C           10.74599662116905        3.29311987420991        1.30750444234205
C           12.00787983632897        2.65030596285286        1.06137264089072
N           11.78960376351372        1.40883709627029        0.53771790392405
C           13.25574586665916        3.21853013857707        1.31642797994317
C           13.27716253347450        4.60029865519915        1.87968622078898
C           13.23715245678055        5.70334938068755        1.02197949848423
C           13.17373268758966        5.49497143130429       -0.46780412765716
C           13.25458141200321        6.98612050896320        1.55674468600232
C           13.30993058791369        7.18629609638286        2.93231746742332
C           13.34780650128227        8.58046229102319        3.49773908447282
C           13.35048801467873        6.08148645136733        3.77646167154342
C           13.33427448028547        4.78971647456672        3.26332511577989
C           13.37671575551478        3.59892598505174        4.18370019530787
C           14.48356422680319        2.60162384207554        1.08489763447953
C           15.76117719316123        3.20219730060296        1.34380018665124
C           16.70568368269137        2.29199688047257        0.99429396350675
N           14.66969925259182        1.34085839536617        0.58194635139159
C           16.01221894134441        1.13129327726778        0.51954230830346
C           16.64286275593573       -0.04135726989009        0.06447417287834
C           15.97420831765376       -1.18610875898597       -0.40618044264472
C           16.62798564979818       -2.37859321349983       -0.85776547121782
C           15.65379523190302       -3.24585015447248       -1.23436952866779
C           14.39759404242410       -2.58654177222989       -1.01628292055418
N           14.62587021544061       -1.33465967707861       -0.50851181673499
C           13.15030189307926       -3.14482130617099       -1.28940782863363
C           13.12304555947581       -4.52634073429124       -1.85321370227778
C           13.21858413550571       -4.71842486906413       -3.23511053674518
C           13.35490861255401       -3.53117934005880       -4.15094732109339
C           13.18627905142936       -6.00852941855616       -3.74922820685933
C           13.06057593892817       -7.11091151121997       -2.90827503836532
C           13.01965272433115       -8.49876590775506       -3.48896689612842
C           12.96704946234851       -6.90839154617342       -1.53637447207452
C           12.99704885284145       -5.62552871459958       -1.00000201184237
C           12.89356051433463       -5.41497552132010        0.48723924761885
C           11.92280808195487       -2.51664683071708       -1.07942481396551
C           10.64118205167187       -3.09786421802658       -1.37260383472795
C            9.70125005084463       -2.18354446573390       -1.02542052265967
C           10.40000311808200       -1.03625582381862       -0.51846630783233
N           11.74555236162020       -1.26495740355116       -0.56468402465072
H            8.70790672473204        0.14672466072655       -0.07223372713203
H            8.70656078860069        2.55911914737906        0.95766476909036
H           10.63089953356301        4.28125654879427        1.72388316599128
H           12.24965262598757        4.98021494906398       -0.73845451782824
H           14.00944311090994        4.87685724777393       -0.80084566672979
H           13.20940593613176        6.44727122022002       -0.99608069115980
H           13.22292534424828        7.84220513953276        0.89064985029204
H           12.91559439416759        8.60625661691843        4.49831517976710
H           14.38205067410824        8.92609123041964        3.56529526768600
H           12.80039116182632        9.27368839876928        2.85852482605187
H           13.39321508423101        6.22801368345369        4.85083720578456
H           14.28109120068752        3.01426883803187        4.00398859192782
H           13.36630877952903        3.91259610281982        5.22713247439274
H           12.51838187903540        2.94904969609560        4.00366831746654
H           15.90588400923315        4.19465466269240        1.73970470667026
H           17.77831700262913        2.38825086331346        1.04870676569829
H           17.69639016289206       -2.52341944154541       -0.87876751402391
H           15.76475917727116       -4.24509332438346       -1.62413754748382
H           12.52645212843538       -2.83695714300181       -3.99858891351545
H           13.36323543143736       -3.84355690845627       -5.19479180316739
H           14.28231367209047       -2.99518589302324       -3.93958595457279
H           13.25962649822617       -6.15857178085021       -4.82149798407992
H           13.88081472976113       -8.66602242652008       -4.13805137450472
H           13.02353929563776       -9.25258823538297       -2.70181319703993
H           12.11666425037645       -8.62916298349962       -4.08891811935505
H           12.86941045496413       -7.76092660234384       -0.87216655891934
H           11.98742830822259       -4.85515484929815        0.72749566551052
H           13.74707612175231       -4.83923331029510        0.84978595754351
H           12.86395039171668       -6.36812591107667        1.01438310452412
H           10.49363404908722       -4.08014570470221       -1.79258414003576
H            8.62819364598544       -2.26447358270734       -1.10094769252037
Cu          31.82333731541919       -0.03761651615367       -0.01881638182533
C           35.23708737714865       -0.05267057279678       -0.12044977171822
C           34.59285190112232       -1.20548147779928       -0.54557138682342
C           35.25416971592753       -2.39068951634361       -1.01410649970296
C           34.28504532372345       -3.28308932601146       -1.33731588370155
C           33.02286875383589       -2.64924264177579       -1.07032387904516
N           33.24058694087815       -1.39083989499703       -0.58852509332536
C           31.77523285005282       -3.23611318018998       -1.28029404874228
C           31.75429069620020       -4.62322996632454       -1.83025602661076
C           31.79428087148798       -4.82565740120562       -3.21278919149919
C           31.85698061270970       -3.64404515780680       -4.14379619288339
C           31.77735060280577       -6.12163935382285       -3.71470342251513
C           31.72245381993922       -7.21825272902229       -2.86043469106451
C           31.68517574456113       -8.61585273446205       -3.41735441767260
C           31.68170430666490       -7.00515681397410       -1.48648034367492
C           31.69742502313965       -5.71764967529826       -0.96272750843253
C           31.65449526888661       -5.49524401743973        0.52575076024405
C           30.54714460309009       -2.63092914936275       -1.02091798279076
C           29.26981845139020       -3.24385006203194       -1.25063437235920
C           28.32486751983182       -2.34546907190764       -0.87287872494615
N           30.36040810845318       -1.37313452921786       -0.51082998045608
C           29.01778201654000       -1.17923127430022       -0.41107287175553
C           28.38666242093060       -0.01838720134436        0.07271662024300
C           29.05482979752592        1.13381600384310        0.52555168346802
C           28.40046269879182        2.30692158480189        1.02456519947504
C           29.37423363440246        3.19377607535898        1.35361966026851
C           30.63076381776609        2.56731484934071        1.05535250632379
N           30.40308663296397        1.31231901622772        0.55501485944525
C           31.87783425885249        3.15941433606109        1.24566712658420
C           31.90488184252414        4.54662705238498        1.79533702778066
C           31.81055780215896        5.64195450840941        0.93103514027619
C           31.67534642698419        5.41928770137331       -0.55188356263316
C           31.84329253833246        6.92883136199025        1.45315634945344
C           31.96830914244115        7.14210126599494        2.82323742000910
C           32.01012802719062        8.54559455886114        3.36497187894216
C           32.06061114191473        6.04616829637144        3.67310244633747
C           32.03014993174688        4.74911001398560        3.17205899927957
C           32.13260854456547        3.56753856711197        4.09958549298202
C           33.10559804571943        2.56096661940843        0.96297859984881
C           34.38697028632593        3.18362419949901        1.15459983588068
C           35.32731738762170        2.28385049097959        0.77232758668420
C           34.62907572793912        1.10493671717803        0.34320762608535
N           33.28341066403079        1.30155885175294        0.46763254801726
H           36.32171415014979       -0.05697474724224       -0.15342626068630
H           36.32415524234681       -2.51062111817891       -1.08077512135571
H           34.40059659309154       -4.28431354935155       -1.72101853872882
H           32.78072665592843       -3.08461561606413       -3.98288768109620
H           31.02084870389736       -2.96792993827372       -3.95627270348243
H           31.82142425128791       -3.96571995409476       -5.18422825302395
H           31.80900208029285       -6.27846040638664       -4.78800290933072
H           32.11651644065315       -9.32704104519865       -2.71252934939583
H           30.65115028074893       -8.91202047393718       -3.60908469411119
H           32.23372131265122       -8.67376717498835       -4.35786970862811
H           31.63916690923360       -7.85455603450511       -0.81247644630641
H           30.74992225409066       -4.94903847629483        0.80039410600392
H           31.66486867410158       -6.44384847191292        1.06174192681610
H           32.51260599596575       -4.90143370751697        0.84593761135036
H           29.12560301913756       -4.23400358410525       -1.65241616527206
H           27.25228277173108       -2.45289879323798       -0.90083303885821
H           27.33197168654584        2.42569747803658        1.10899932217734
H           29.26278528340811        4.18473504261338        1.76387874827059
H           32.50384765055131        4.81245854825746       -0.92181540200024
H           31.66794438761288        6.36734165938313       -1.08891200914222
H           30.74788400151906        4.88660598063268       -0.77121783509232
H           31.77101352599789        7.77946326248160        0.78316906600766
H           31.15041148322963        9.11682277124486        3.01077152784445
H           32.00430518513700        8.54471853272472        4.45485271782107
H           32.91445276673068        9.05374320204930        3.02390723568058
H           32.15774752979559        6.20152374315896        4.74265997403542
H           33.03840883248292        2.99663052459763        3.88562694907403
H           31.27869804444980        2.90163929431324        3.96247024565417
H           32.16220596085076        3.89043633435147        5.13982646817044
H           34.53408080179222        4.18311915404485        1.53195596946862
H           36.40033971953102        2.39483819459895        0.77438344707206
C           18.04778759657568       -0.06562161548145        0.07996435366915
C           19.27232853301472       -0.06984080754647        0.09270056363422
C           20.61515204654369       -0.06866385233996        0.10410537394504
C           21.84574687862810       -0.05648158767164        0.11470236304474
C           23.18378838116447       -0.04333616687525        0.12000450970531
C           24.41441747003709       -0.02882081485939        0.12138084756968
C           25.75722785375851       -0.01927596179297        0.11321531638811
C           26.98175369739180       -0.01209822303325        0.10126670303647

          :  Hamiltonian                  GFN1-xTB          :
         :: total energy            -245.484352837237 Eh    ::
         :: gradient norm              0.000181234751 Eh/a0 ::
         :: HOMO-LUMO gap              0.000003767010 eV    ::
         :: SCC energy              -249.454558279676 Eh    ::
         :: repulsion energy           4.108729521748 Eh    ::

    * Orbital Energies and Occupations

         #    Occupation            Energy/Eh            Energy/eV
      -------------------------------------------------------------
         1        2.0000           -0.7629961             -20.7622
       ...           ...                  ...                  ...
       218        2.0000           -0.4107940             -11.1783
       219        2.0000           -0.4076562             -11.0929
       220        2.0000           -0.4076561             -11.0929
       221        2.0000           -0.4073622             -11.0849
       222        2.0000           -0.4073619             -11.0849
       223        2.0000           -0.4072815             -11.0827
       224        2.0000           -0.4071004             -11.0778
       225        2.0000           -0.4040673             -10.9952
       226        2.0000           -0.3943410             -10.7306
       227        2.0000           -0.3943408             -10.7306
       228        2.0000           -0.3885476             -10.5729
       229        2.0000           -0.3791949             -10.3184
       230        1.0000           -0.3544771              -9.6458 (HOMO)
       231        1.0000           -0.3544769              -9.6458 (LUMO)
       232                         -0.3369210              -9.1681
       233                         -0.3268639              -8.8944
       234                         -0.3246481              -8.8341
       235                         -0.3246477              -8.8341
       236                         -0.2985701              -8.1245
       237                         -0.2968092              -8.0766
       238                         -0.2892601              -7.8712
       239                         -0.2703351              -7.3562
       240                         -0.2548716              -6.9354
       241                         -0.2548712              -6.9354
       ...                                ...                  ...
       510                          1.6086628              43.7739
      -------------------------------------------------------------
                  HL-Gap            0.0000001 Eh            0.0000 eV

Wiberg/Mayer (AO) data.
largest (>0.10) Wiberg bond orders for each atom

     #   Z sym  total        # sym  WBO       # sym  WBO       # sym  WBO
 ---------------------------------------------------------------------------
     1  29 Cu   2.189 --    43 N    0.506     7 N    0.506    21 N    0.503
                            28 N    0.503
     2   6 C    3.928 --    42 C    1.361     3 C    1.361    44 H    0.971
     3   6 C    3.918 --     2 C    1.361     7 N    1.231     4 C    1.171
     4   6 C    3.955 --     5 C    1.656     3 C    1.171    45 H    0.976
     5   6 C    3.958 --     4 C    1.656     6 C    1.171    46 H    0.974
     6   6 C    3.913 --     8 C    1.324     7 N    1.236     5 C    1.171
     7   7 N    3.244 --     6 C    1.236     3 C    1.231     1 Cu   0.506
     8   6 C    3.935 --    18 C    1.334     6 C    1.324     9 C    1.004
     9   6 C    3.987 --    16 C    1.381    10 C    1.381     8 C    1.004
                            13 C    0.104
    10   6 C    3.984 --    12 C    1.421     9 C    1.381    11 C    1.020
                            15 C    0.103
    11   6 C    3.996 --    10 C    1.020    49 H    0.986    48 H    0.975
                            47 H    0.973
    12   6 C    3.993 --    10 C    1.421    13 C    1.414    50 H    0.970
                            16 C    0.103
    13   6 C    3.988 --    15 C    1.414    12 C    1.414    14 C    1.020
                             9 C    0.104
    14   6 C    3.996 --    13 C    1.020    51 H    0.983    53 H    0.983
                            52 H    0.971
    15   6 C    3.993 --    16 C    1.420    13 C    1.414    54 H    0.970
                            10 C    0.103
    16   6 C    3.984 --    15 C    1.420     9 C    1.381    17 C    1.020
                            12 C    0.103
    17   6 C    3.996 --    16 C    1.020    56 H    0.986    57 H    0.975
                            55 H    0.973
    18   6 C    3.908 --     8 C    1.334    21 N    1.217    19 C    1.178
    19   6 C    3.955 --    20 C    1.643    18 C    1.178    58 H    0.974
    20   6 C    3.957 --    19 C    1.643    22 C    1.186    59 H    0.974
    21   7 N    3.248 --    22 C    1.259    18 C    1.217     1 Cu   0.503
    22   6 C    3.897 --    21 N    1.259    23 C    1.257    20 C    1.186
    23   6 C    3.939 --    24 C    1.258    22 C    1.257   149 C    1.191
    24   6 C    3.897 --    28 N    1.259    23 C    1.258    25 C    1.186
    25   6 C    3.957 --    26 C    1.643    24 C    1.186    60 H    0.974
    26   6 C    3.955 --    25 C    1.643    27 C    1.178    61 H    0.974
    27   6 C    3.908 --    29 C    1.334    28 N    1.217    26 C    1.178
    28   7 N    3.248 --    24 C    1.259    27 C    1.217     1 Cu   0.503
    29   6 C    3.935 --    27 C    1.334    39 C    1.324    30 C    1.004
    30   6 C    3.987 --    37 C    1.385    31 C    1.377    29 C    1.004
                            34 C    0.104
    31   6 C    3.984 --    33 C    1.425    30 C    1.377    32 C    1.020
                            36 C    0.102
    32   6 C    3.996 --    31 C    1.020    63 H    0.986    62 H    0.975
                            64 H    0.973
    33   6 C    3.993 --    31 C    1.425    34 C    1.409    65 H    0.971
                            37 C    0.104
    34   6 C    3.988 --    36 C    1.419    33 C    1.409    35 C    1.020
                            30 C    0.104
    35   6 C    3.996 --    34 C    1.020    67 H    0.986    66 H    0.977
                            68 H    0.974
    36   6 C    3.993 --    34 C    1.419    37 C    1.416    69 H    0.970
                            31 C    0.102
    37   6 C    3.984 --    36 C    1.416    30 C    1.385    38 C    1.020
                            33 C    0.104
    38   6 C    3.996 --    37 C    1.020    72 H    0.986    71 H    0.975
                            70 H    0.973
    39   6 C    3.913 --    29 C    1.324    43 N    1.236    40 C    1.171
    40   6 C    3.958 --    41 C    1.656    39 C    1.171    73 H    0.974
    41   6 C    3.955 --    40 C    1.656    42 C    1.171    74 H    0.976
    42   6 C    3.918 --     2 C    1.361    43 N    1.230    41 C    1.171
    43   7 N    3.244 --    39 C    1.236    42 C    1.230     1 Cu   0.506
    44   1 H    1.002 --     2 C    0.971
    45   1 H    0.998 --     4 C    0.976
    46   1 H    1.002 --     5 C    0.974
    47   1 H    1.008 --    11 C    0.973
    48   1 H    1.007 --    11 C    0.975
    49   1 H    1.004 --    11 C    0.986
    50   1 H    1.000 --    12 C    0.970
    51   1 H    1.004 --    14 C    0.983
    52   1 H    1.006 --    14 C    0.971
    53   1 H    1.004 --    14 C    0.983
    54   1 H    1.000 --    15 C    0.970
    55   1 H    1.008 --    17 C    0.973
    56   1 H    1.004 --    17 C    0.986
    57   1 H    1.007 --    17 C    0.975
    58   1 H    1.002 --    19 C    0.974
    59   1 H    1.002 --    20 C    0.974
    60   1 H    1.002 --    25 C    0.974
    61   1 H    1.002 --    26 C    0.974
    62   1 H    1.007 --    32 C    0.975
    63   1 H    1.004 --    32 C    0.986
    64   1 H    1.008 --    32 C    0.973
    65   1 H    0.999 --    33 C    0.971
    66   1 H    1.005 --    35 C    0.977
    67   1 H    1.004 --    35 C    0.986
    68   1 H    1.006 --    35 C    0.974
    69   1 H    1.000 --    36 C    0.970
    70   1 H    1.008 --    38 C    0.973
    71   1 H    1.007 --    38 C    0.975
    72   1 H    1.004 --    38 C    0.986
    73   1 H    1.002 --    40 C    0.974
    74   1 H    0.998 --    41 C    0.976
    75  29 Cu   2.189 --   117 N    0.506    81 N    0.506    95 N    0.503
                           102 N    0.503
    76   6 C    3.928 --   116 C    1.361    77 C    1.361   118 H    0.971
    77   6 C    3.918 --    76 C    1.361    81 N    1.231    78 C    1.171
    78   6 C    3.955 --    79 C    1.656    77 C    1.171   119 H    0.976
    79   6 C    3.958 --    78 C    1.656    80 C    1.171   120 H    0.974
    80   6 C    3.913 --    82 C    1.324    81 N    1.236    79 C    1.171
    81   7 N    3.244 --    80 C    1.236    77 C    1.231    75 Cu   0.506
    82   6 C    3.935 --    92 C    1.334    80 C    1.324    83 C    1.004
    83   6 C    3.987 --    90 C    1.381    84 C    1.381    82 C    1.004
                            87 C    0.104
    84   6 C    3.984 --    86 C    1.421    83 C    1.381    85 C    1.020
                            89 C    0.103
    85   6 C    3.996 --    84 C    1.020   123 H    0.986   122 H    0.975
                           121 H    0.973
    86   6 C    3.993 --    84 C    1.421    87 C    1.414   124 H    0.970
                            90 C    0.103
    87   6 C    3.988 --    89 C    1.414    86 C    1.414    88 C    1.020
                            83 C    0.104
    88   6 C    3.996 --    87 C    1.020   125 H    0.983   127 H    0.983
                           126 H    0.971
    89   6 C    3.993 --    90 C    1.420    87 C    1.414   128 H    0.970
                            84 C    0.103
    90   6 C    3.984 --    89 C    1.420    83 C    1.381    91 C    1.020
                            86 C    0.103
    91   6 C    3.996 --    90 C    1.020   130 H    0.986   131 H    0.975
                           129 H    0.973
    92   6 C    3.908 --    82 C    1.334    95 N    1.217    93 C    1.178
    93   6 C    3.955 --    94 C    1.643    92 C    1.178   132 H    0.974
    94   6 C    3.957 --    93 C    1.643    96 C    1.186   133 H    0.974
    95   7 N    3.248 --    96 C    1.259    92 C    1.217    75 Cu   0.503
    96   6 C    3.897 --    95 N    1.259    97 C    1.257    94 C    1.186
    97   6 C    3.939 --    98 C    1.258    96 C    1.257   156 C    1.191
    98   6 C    3.897 --   102 N    1.259    97 C    1.258    99 C    1.186
    99   6 C    3.957 --   100 C    1.643    98 C    1.186   134 H    0.974
   100   6 C    3.955 --    99 C    1.643   101 C    1.178   135 H    0.974
   101   6 C    3.908 --   103 C    1.334   102 N    1.217   100 C    1.178
   102   7 N    3.248 --    98 C    1.259   101 C    1.217    75 Cu   0.503
   103   6 C    3.935 --   101 C    1.334   113 C    1.324   104 C    1.004
   104   6 C    3.987 --   111 C    1.385   105 C    1.377   103 C    1.004
                           108 C    0.104
   105   6 C    3.984 --   107 C    1.425   104 C    1.377   106 C    1.020
                           110 C    0.102
   106   6 C    3.996 --   105 C    1.020   137 H    0.986   136 H    0.975
                           138 H    0.973
   107   6 C    3.993 --   105 C    1.425   108 C    1.409   139 H    0.971
                           111 C    0.104
   108   6 C    3.988 --   110 C    1.419   107 C    1.409   109 C    1.020
                           104 C    0.104
   109   6 C    3.996 --   108 C    1.020   141 H    0.986   140 H    0.977
                           142 H    0.974
   110   6 C    3.993 --   108 C    1.419   111 C    1.416   143 H    0.970
                           105 C    0.102
   111   6 C    3.984 --   110 C    1.416   104 C    1.385   112 C    1.020
                           107 C    0.104
   112   6 C    3.996 --   111 C    1.020   146 H    0.986   145 H    0.975
                           144 H    0.973
   113   6 C    3.913 --   103 C    1.324   117 N    1.236   114 C    1.171
   114   6 C    3.958 --   115 C    1.656   113 C    1.171   147 H    0.974
   115   6 C    3.955 --   114 C    1.656   116 C    1.171   148 H    0.976
   116   6 C    3.918 --    76 C    1.361   117 N    1.230   115 C    1.171
   117   7 N    3.244 --   113 C    1.236   116 C    1.230    75 Cu   0.506
   118   1 H    1.002 --    76 C    0.971
   119   1 H    0.998 --    78 C    0.976
   120   1 H    1.002 --    79 C    0.974
   121   1 H    1.008 --    85 C    0.973
   122   1 H    1.007 --    85 C    0.975
   123   1 H    1.004 --    85 C    0.986
   124   1 H    1.000 --    86 C    0.970
   125   1 H    1.004 --    88 C    0.983
   126   1 H    1.006 --    88 C    0.971
   127   1 H    1.004 --    88 C    0.983
   128   1 H    1.000 --    89 C    0.970
   129   1 H    1.008 --    91 C    0.973
   130   1 H    1.004 --    91 C    0.986
   131   1 H    1.007 --    91 C    0.975
   132   1 H    1.002 --    93 C    0.974
   133   1 H    1.002 --    94 C    0.974
   134   1 H    1.002 --    99 C    0.974
   135   1 H    1.002 --   100 C    0.974
   136   1 H    1.007 --   106 C    0.975
   137   1 H    1.004 --   106 C    0.986
   138   1 H    1.008 --   106 C    0.973
   139   1 H    0.999 --   107 C    0.971
   140   1 H    1.005 --   109 C    0.977
   141   1 H    1.004 --   109 C    0.986
   142   1 H    1.006 --   109 C    0.974
   143   1 H    1.000 --   110 C    0.970
   144   1 H    1.008 --   112 C    0.973
   145   1 H    1.007 --   112 C    0.975
   146   1 H    1.004 --   112 C    0.986
   147   1 H    1.002 --   114 C    0.974
   148   1 H    0.998 --   115 C    0.976
   149   6 C    3.877 --   150 C    2.440    23 C    1.191   152 C    0.187
   150   6 C    3.935 --   149 C    2.440   151 C    1.344
   151   6 C    3.894 --   152 C    2.337   150 C    1.344   154 C    0.183
   152   6 C    3.926 --   151 C    2.337   153 C    1.368   149 C    0.187
   153   6 C    3.926 --   154 C    2.337   152 C    1.368   156 C    0.187
   154   6 C    3.894 --   153 C    2.337   155 C    1.344   151 C    0.183
   155   6 C    3.935 --   156 C    2.440   154 C    1.344
   156   6 C    3.877 --   155 C    2.440    97 C    1.191   153 C    0.187
 ---------------------------------------------------------------------------

           -------------------------------------------------
          | TOTAL ENERGY             -245.484352837237 Eh   |
          | GRADIENT NORM               0.000181234751 Eh/α |
          | HOMO-LUMO GAP               0.000003767010 eV   |
           -------------------------------------------------

 * finished run on 2022/07/30 at 08:45:41.618
