   * xtb version 6.5.1 (b24c23e) compiled by 'conda@728c89f4b128' on 2022-07-12
          program call               : xtb Co_m-CP_C6_3.xyz --gfn 1 --opt -T 48

   ID    Z sym.   atoms
    1   27 Co     1, 63, 137
    2    6 C      2-6, 8-12, 15-20, 22-27, 29-35, 38-42, 64-68, 70-74, 77-82,
                  84-89, 91-97, 100-104, 125-136, 138-142, 144-148, 151-156,
                  158-163, 165-171, 174-178
    3    7 N      7, 21, 28, 43, 69, 83, 90, 105, 143, 157, 164, 179
    4    8 O      13, 14, 36, 37, 75, 76, 98, 99, 149, 150, 172, 173
    5    1 H      44-62, 106-124, 180-197
########################################################################
[WARNING] Please study the warnings concerning your input carefully
-1- prog_main_parseArguments: Unknown option '-T' provided
########################################################################

          :  Hamiltonian                  GFN1-xTB          :
 * total energy  :  -375.3755918 Eh     change        0.7975132E-09 Eh
 * total energy  :  -375.6200311 Eh     change       -0.2444393E+00 Eh
 * total energy  :  -375.7766309 Eh     change       -0.1565998E+00 Eh
 * total energy  :  -375.8543293 Eh     change       -0.7769840E-01 Eh
 * total energy  :  -375.9118270 Eh     change       -0.5749766E-01 Eh
 * total energy  :  -375.9530415 Eh     change       -0.4121446E-01 Eh
 * total energy  :  -375.9839004 Eh     change       -0.3085891E-01 Eh
 * total energy  :  -376.0091713 Eh     change       -0.2527095E-01 Eh
 * total energy  :  -376.0332355 Eh     change       -0.2406422E-01 Eh
 * total energy  :  -376.0630804 Eh     change       -0.2984486E-01 Eh
 * total energy  :  -376.2148687 Eh     change       -0.1248071E-04 Eh
 * total energy  :  -376.2147894 Eh     change        0.7925627E-04 Eh
 * total energy  :  -376.2148684 Eh     change       -0.7897149E-04 Eh
 * total energy  :  -376.2148690 Eh     change       -0.5664635E-06 Eh
 * total energy  :  -376.2148066 Eh     change        0.6234490E-04 Eh
 * total energy  :  -376.2148719 Eh     change       -0.6523827E-04 Eh
 * total energy  :  -376.2148719 Eh     change        0.1265897E-07 Eh
 * total energy  :  -376.2148858 Eh     change       -0.1398821E-04 Eh
 * total energy  :  -376.2148888 Eh     change       -0.2984259E-05 Eh
   *** GEOMETRY OPTIMIZATION CONVERGED AFTER 133 ITERATIONS ***

 final structure:
================
197
 xtb: 6.5.1 (b24c23e)
Co          29.22227076384856        0.03534705747586       -0.19515292254389
C           25.85654682297669        0.05234842809630       -0.03992932831558
C           26.51265631991352        1.25694299828826       -0.18016187474194
C           25.85531794988791        2.52167054791402       -0.31082528501714
C           26.81945933618293        3.46971580364672       -0.24341808256226
C           28.06300304548072        2.78274025452885       -0.04690168224188
N           27.87116060363074        1.42530900129966       -0.08568513262410
C           29.25981906860727        3.40399965112238        0.28610592979767
C           29.28328006994501        4.87167116161575        0.48043900398937
C           28.46002558080803        5.47625736015801        1.42640128967948
C           28.48545516619233        6.85862682826516        1.60580615471689
C           27.58390976588504        7.44317491282201        2.63053102559711
O           27.68890402064699        8.77544545485864        2.73923946251456
O           26.82111441791988        6.80404012304322        3.30881160759863
C           29.33773264077349        7.64856131477251        0.83438378694083
C           30.15850807725740        7.04913975557595       -0.10811072735815
C           30.13486848235325        5.67301659944450       -0.28437917935398
C           30.43354631480048        2.68461587084817        0.45900281090875
C           31.67314923097183        3.25107264469699        0.89852448518883
C           32.61327940024283        2.28364891675163        0.76786816183298
N           30.60371121674184        1.36013414576199        0.12891266991154
C           31.94521939808801        1.13089901198111        0.25226216632941
C           32.61094370465828       -0.00083716275232       -0.22820734956699
C           31.91483920638348       -1.10846616792548       -0.72184123251584
C           32.54785595334846       -2.25249667389457       -1.29725430005268
C           31.57846505398216       -3.18164510385402       -1.48074401585250
C           30.35878768650113       -2.60681377094782       -0.99750938615245
N           30.56876179790357       -1.30548957442345       -0.60055200614565
C           29.17612367946045       -3.30916328624385       -0.82169134146363
C           29.14620427856297       -4.76126251445233       -1.11115093839348
C           30.00303918838466       -5.63775303526581       -0.44139429733785
C           29.97099333255611       -6.99938392066644       -0.70830609955403
C           29.08675095993662       -7.50263117421060       -1.64778404172810
C           28.22593434160736       -6.63688219588702       -2.32429719731218
C           27.29277327074126       -7.21477264581948       -3.32398019729669
O           26.50159545327249       -6.30402106614575       -3.90933629779165
O           27.23179818416016       -8.38583752106804       -3.59857530742463
C           28.25555564273627       -5.27044383465545       -2.05421470836968
C           28.01659874477668       -2.69003465739966       -0.37070356345032
C           26.78839200576629       -3.37510299265421       -0.09084509962473
C           25.85327098041121       -2.42371297585809        0.14090935384560
C           26.51154329939067       -1.15970110056426        0.00664864398540
N           27.85040298069740       -1.33596970763588       -0.24063804706521
H           24.77469170486096        0.05743059106293        0.02016588690301
H           24.79146204096920        2.64744533313460       -0.43384898021597
H           26.71081651453224        4.53998937747692       -0.31089530215322
H           27.80234026258989        4.87708561938324        2.04658493575469
H           27.07097772163912        9.07843125505708        3.42428980109408
H           29.35445241713496        8.72266089093976        0.97379417050961
H           30.82155641602757        7.65722714528836       -0.71305194340329
H           30.77011378141400        5.21215758723048       -1.03254807991695
H           31.79659010336927        4.25870859619357        1.26083802714243
H           33.66818568263348        2.33432212230605        0.98439354725902
H           33.60015955930813       -2.32175490646768       -1.52125949432595
H           31.67091829120525       -4.17030586676278       -1.89999535523051
H           30.68568697278878       -5.24801167462684        0.30538497682468
H           30.63865793649192       -7.66809206363817       -0.17712829939429
H           29.04896778420925       -8.56339131541862       -1.86854876122521
H           25.92577476758424       -6.75903534312432       -4.54513313562863
H           27.59532239693868       -4.59879082078451       -2.59006310015819
H           26.67070433595945       -4.44654263928933       -0.07730971626505
H           24.80674170174401       -2.54629951184106        0.37012748299807
Co          60.96533571708169        0.11361419028848        0.01277355053255
C           64.32869508893904        0.05797416724029        0.18269257067752
C           63.68359315343666       -1.02891194188977       -0.36934870448829
C           64.35233890343136       -2.16052349717118       -0.93552457560784
C           63.39291039002001       -3.06305980461128       -1.24824807799705
C           62.14114881851785       -2.49593861546172       -0.83729128608273
N           62.32521709118588       -1.21866042990904       -0.37115012161312
C           60.94621305320686       -3.19963561754106       -0.76468282029761
C           60.92179781481757       -4.63218080259742       -1.13829524176562
C           61.74893679763860       -5.55100248839818       -0.49826149803957
C           61.72003860750553       -6.89811470343068       -0.85660434011353
C           62.62835383463226       -7.82780423328514       -0.13888648804782
O           62.52004043042110       -9.10159151540263       -0.54339357676951
O           63.39780320068490       -7.49429637075991        0.72549392196729
C           60.85873476827193       -7.33627757947382       -1.86237158004293
C           60.03201386028596       -6.42405283316839       -2.49931839900973
C           60.06002908340212       -5.08382250134221       -2.14128033667047
C           59.77415484842116       -2.60539811211998       -0.31788457576177
C           58.54943282708764       -3.30915700799805       -0.08289383283750
C           57.60982330963485       -2.37494493751985        0.20206652625388
N           59.59625217477858       -1.25645261625502       -0.12014658658600
C           58.26150957589159       -1.10543960159047        0.13309984177582
C           57.57928022428425        0.11430340292038        0.13021424689793
C           58.25350611426256        1.33399469365634        0.01260962592990
C           57.59572224965972        2.59337054731208       -0.13505977949425
C           58.56000501721515        3.54405912006540       -0.08239610827865
C           59.80140454757568        2.86122147845768        0.12835354041458
N           59.60501371585948        1.49822349548720        0.11307494969758
C           60.99346069517456        3.48737560926566        0.45792211039359
C           61.02202331869677        4.96029393768628        0.61153425007840
C           60.20177410233006        5.59641280615773        1.54603470491082
C           60.23194783893895        6.97663900146270        1.68915494798529
C           61.07785490079256        7.73858645835156        0.90075889980077
C           61.90355692012747        7.11438321250913       -0.03560516825258
C           62.79568601823216        7.96595232048311       -0.86215645681434
O           63.55343614939967        7.27199731982252       -1.72362524832108
O           62.85313842196020        9.16632795693945       -0.78295642848911
C           61.87665742005779        5.72860072981439       -0.17651128536571
C           62.16235429483337        2.76812831501390        0.67709676795099
C           63.38905892892845        3.34172108657441        1.14803725496261
C           64.32226416264585        2.36173807920280        1.10380553580969
C           63.66724327855705        1.19400379732833        0.59672507420227
N           62.33003520256408        1.43704783875729        0.40059301526956
H           65.40930944460099        0.03325280732827        0.25833539381686
H           65.41941212427696       -2.23429660776139       -1.07213373447481
H           63.51044465785355       -4.03213447641232       -1.70524419809443
H           62.41241436055542       -5.23289868016534        0.29846070762275
H           63.14251436514331       -9.64193419792007       -0.03008840006548
H           60.83923423341126       -8.38301059600892       -2.14053822520347
H           59.36081179322708       -6.75730368729563       -3.28277275385687
H           59.41950916539944       -4.37348787790107       -2.65203252063802
H           58.43593062244452       -4.38021774814241       -0.12554802146748
H           56.56418134045304       -2.51499889937880        0.42417965820303
H           56.53259913972259        2.71759131948473       -0.26400656980588
H           58.45006749317135        4.61270462322254       -0.16962531013965
H           59.54962345148115        5.00083558805332        2.17497644873682
H           59.59255879136909        7.45612198051484        2.42155053798113
H           61.11249383988672        8.81776672185437        0.99846587595610
H           64.10379700313199        7.89702584707772       -2.22292034640324
H           62.51028133724325        5.24695005306859       -0.91183296635651
H           63.50552659012585        4.36340168519238        1.47161395322551
H           65.36680902911411        2.41060790469830        1.36707501134170
C           37.80578445669695        0.05602545139679       -0.36957641659600
C           36.57791588188990        0.01818661143705       -0.31253565576335
C           35.23671774552355       -0.00514948088544       -0.26690703583005
C           34.01204386111566       -0.01087557052192       -0.24221240235029
C           39.14335935017186        0.11239981398915       -0.45953873313240
C           40.36240137692167        0.18274369033532       -0.56226879063179
C           53.61251547685873        0.14364855344251        0.15224775442922
C           52.38539713909088        0.16769559092439        0.07755049611537
C           51.05070524738956        0.20419434056039       -0.05566863719144
C           49.83739393734182        0.24373552826464       -0.22193375247457
C           54.95409959863231        0.12483790842887        0.18752092431037
C           56.17884690986171        0.11536397783983        0.17907878019806
Co          45.11568194159786        0.40278475827424       -0.88504684655939
C           41.75192587359211        0.27281915945603       -0.70456292406745
C           42.42009638366731       -0.69064533148064       -1.47239208343212
C           41.75558591341511       -1.67777208457247       -2.26224772187379
C           42.72380695307189       -2.42507072236350       -2.84705833687154
C           43.97608906675540       -1.92830334476559       -2.36108433765276
N           43.77335283619615       -0.81442784555556       -1.57609927316101
C           45.18909817846755       -2.58737543286462       -2.49214932880261
C           45.26360946665103       -3.85161937906516       -3.25916306710007
C           44.48799128166974       -4.95355740963967       -2.91136870396193
C           44.57743621368566       -6.13828779986156       -3.64122704734603
C           43.72722711976654       -7.28023884146716       -3.21852970166791
O           43.89590580520267       -8.37915620127464       -3.96730397759945
O           42.95360896286602       -7.24576731875736       -2.29633633852552
C           45.44574961543665       -6.22653846182933       -4.72896739313477
C           46.22290244047552       -5.13174529421195       -5.07403923722946
C           46.13791036559471       -3.95490582494651       -4.34432482485412
C           46.33932117724140       -2.13673344469330       -1.85295037161874
C           47.54179395428545       -2.90019147306426       -1.71831765182414
C           48.43161657706503       -2.11572279546300       -1.06077055681389
N           46.48670663987200       -0.90458111120209       -1.26931024652447
C           47.78095962689430       -0.86480283415384       -0.83069501721887
C           48.45851718299091        0.30048063764408       -0.45622002687460
C           47.81800740143495        1.54695727951163       -0.44206402527608
C           48.50757818946465        2.79360101147210       -0.34430106526444
C           47.56008651280558        3.76351456009831       -0.34239714245111
C           46.29191033998482        3.09928063824520       -0.37928098927244
N           46.47081025427457        1.74039627033786       -0.51595005417496
C           45.07501872075707        3.70996323982197       -0.11410848621034
C           45.02757440032541        5.16491519121417        0.15695753413661
C           44.22747400289856        5.99473359898939       -0.63208259661765
C           44.17378130239619        7.36051865441039       -0.39234504598339
C           44.91080191140903        7.91340837218311        0.64169104967266
C           45.70542358886126        7.09298140781193        1.44364611564820
C           46.47441898750081        7.72261743832549        2.54713851483861
O           47.21115297542464        6.85228985705526        3.25199557091808
O           46.45466349808930        8.89925134063042        2.80235417040795
C           45.76284489577483        5.72221748254754        1.20090832204397
C           43.89607002038674        2.97943773153774       -0.01268607827137
C           42.66825913929486        3.49346297336452        0.51191655844308
C           41.75665745544811        2.49291322362988        0.42562755061285
C           42.42209760578930        1.38547393644864       -0.18405476187076
N           43.74062403957308        1.67299975397839       -0.40133233657210
H           40.68568168152905       -1.76397760878876       -2.36233557067991
H           42.60787348815448       -3.25135788917600       -3.52901714970543
H           43.82185628394971       -4.91148704352504       -2.05665315210585
H           43.30975537607326       -9.07589914867785       -3.62968135992113
H           45.51113150075705       -7.14713066752363       -5.29609057551567
H           46.90116718497254       -5.19369821211691       -5.91747359019129
H           46.74338136900119       -3.09938335897660       -4.62209713487959
H           47.67167155034604       -3.91185435313853       -2.06700014211389
H           49.44750990682070       -2.33960551855666       -0.77787756199831
H           49.57960845456769        2.89926318327977       -0.30171518955806
H           47.69925089160003        4.83138323569534       -0.30154011514674
H           43.65652922251624        5.56346286781040       -1.44673906799562
H           43.55370657447313        7.99318355398885       -1.01706675245908
H           44.88030484814678        8.97821985303738        0.84325831772573
H           47.67868272557597        7.33816271794906        3.95079138609798
H           46.36471151159216        5.08568933778953        1.83852425024537
H           42.53627471831123        4.48616855577774        0.91069017592953
H           40.71881843121876        2.49957326391126        0.71723698087008

          :  Hamiltonian                  GFN1-xTB          :
         :: total energy            -376.214888827280 Eh    ::
         :: gradient norm              0.000459930486 Eh/a0 ::
         :: HOMO-LUMO gap              0.012009643479 eV    ::
         :: SCC energy              -381.847082305287 Eh    ::
         :: repulsion energy           5.808132127124 Eh    ::

    * Orbital Energies and Occupations

         #    Occupation            Energy/Eh            Energy/eV
      -------------------------------------------------------------
         1        2.0000           -0.8371843             -22.7809
       ...           ...                  ...                  ...
       324        2.0000           -0.4017466             -10.9321
       325        2.0000           -0.4014327             -10.9235
       326        2.0000           -0.4003798             -10.8949
       327        1.9999           -0.3989657             -10.8564
       328        1.9999           -0.3989138             -10.8550
       329        1.9998           -0.3980426             -10.8313
       330        1.9998           -0.3979361             -10.8284
       331        1.9998           -0.3979209             -10.8280
       332        1.9997           -0.3978148             -10.8251
       333        1.9995           -0.3972389             -10.8094
       334        1.8143           -0.3914577             -10.6521
       335        1.1360           -0.3894299             -10.5969
       336        1.1306           -0.3894183             -10.5966 (HOMO)
       337        0.9208           -0.3889769             -10.5846 (LUMO)
       338                         -0.3521681              -9.5830
       339                         -0.3411729              -9.2838
       340                         -0.3394292              -9.2363
       341                         -0.3355352              -9.1304
       342                         -0.3353088              -9.1242
       343                         -0.3345346              -9.1031
       344                         -0.3177486              -8.6464
       345                         -0.3151642              -8.5761
       346                         -0.3143183              -8.5530
       347                         -0.3135148              -8.5312
       ...                                ...                  ...
       691                          1.5667349              42.6330
      -------------------------------------------------------------
                  HL-Gap            0.0004413 Eh            0.0120 eV

Wiberg/Mayer (AO) data.
largest (>0.10) Wiberg bond orders for each atom

     #   Z sym  total        # sym  WBO       # sym  WBO       # sym  WBO
 ---------------------------------------------------------------------------
     1  27 Co   3.037 --     7 N    0.638    43 N    0.638    21 N    0.632
                            28 N    0.631
     2   6 C    3.928 --    42 C    1.367     3 C    1.364    44 H    0.970
     3   6 C    3.923 --     2 C    1.364     7 N    1.201     4 C    1.174
     4   6 C    3.959 --     5 C    1.650     3 C    1.174    45 H    0.975
     5   6 C    3.963 --     4 C    1.650     6 C    1.175    46 H    0.973
     6   6 C    3.921 --     8 C    1.319     7 N    1.212     5 C    1.175
     7   7 N    3.346 --     6 C    1.212     3 C    1.201     1 Co   0.638
     8   6 C    3.931 --    18 C    1.329     6 C    1.319     9 C    1.031
     9   6 C    3.988 --    10 C    1.407    17 C    1.386     8 C    1.031
                            15 C    0.102
    10   6 C    3.983 --     9 C    1.407    11 C    1.397    47 H    0.967
                            16 C    0.104
    11   6 C    3.988 --    10 C    1.397    15 C    1.391    12 C    1.004
    12   6 C    3.836 --    14 O    1.693    13 O    1.090    11 C    1.004
    13   8 O    2.099 --    12 C    1.090    48 H    0.838    14 O    0.129
    14   8 O    1.962 --    12 C    1.693    13 O    0.129
    15   6 C    3.986 --    16 C    1.447    11 C    1.391    49 H    0.970
                             9 C    0.102
    16   6 C    3.994 --    15 C    1.447    17 C    1.442    50 H    0.972
                            10 C    0.104
    17   6 C    3.985 --    16 C    1.442     9 C    1.386    51 H    0.972
    18   6 C    3.918 --     8 C    1.329    21 N    1.195    19 C    1.182
    19   6 C    3.958 --    20 C    1.636    18 C    1.182    52 H    0.973
    20   6 C    3.961 --    19 C    1.636    22 C    1.190    53 H    0.974
    21   7 N    3.346 --    22 C    1.230    18 C    1.195     1 Co   0.632
    22   6 C    3.902 --    23 C    1.256    21 N    1.230    20 C    1.190
    23   6 C    3.933 --    22 C    1.256    24 C    1.255   128 C    1.198
    24   6 C    3.902 --    23 C    1.255    28 N    1.233    25 C    1.190
    25   6 C    3.960 --    26 C    1.637    24 C    1.190    54 H    0.974
    26   6 C    3.958 --    25 C    1.637    27 C    1.180    55 H    0.973
    27   6 C    3.918 --    29 C    1.334    28 N    1.191    26 C    1.180
    28   7 N    3.345 --    24 C    1.233    27 C    1.191     1 Co   0.631
    29   6 C    3.931 --    27 C    1.334    39 C    1.315    30 C    1.030
    30   6 C    3.988 --    38 C    1.404    31 C    1.388    29 C    1.030
                            33 C    0.102
    31   6 C    3.987 --    32 C    1.440    30 C    1.388    56 H    0.972
    32   6 C    3.994 --    33 C    1.450    31 C    1.440    57 H    0.972
                            38 C    0.104
    33   6 C    3.985 --    32 C    1.450    34 C    1.387    58 H    0.969
                            30 C    0.102
    34   6 C    3.988 --    38 C    1.401    33 C    1.387    35 C    1.005
    35   6 C    3.836 --    37 O    1.693    36 O    1.090    34 C    1.005
    36   8 O    2.099 --    35 C    1.090    59 H    0.838    37 O    0.129
    37   8 O    1.961 --    35 C    1.693    36 O    0.129
    38   6 C    3.983 --    30 C    1.404    34 C    1.401    60 H    0.969
                            32 C    0.104
    39   6 C    3.920 --    29 C    1.315    43 N    1.215    40 C    1.176
    40   6 C    3.963 --    41 C    1.649    39 C    1.176    61 H    0.973
    41   6 C    3.960 --    40 C    1.649    42 C    1.174    62 H    0.975
    42   6 C    3.923 --     2 C    1.367    43 N    1.198    41 C    1.174
    43   7 N    3.346 --    39 C    1.215    42 C    1.198     1 Co   0.638
    44   1 H    1.000 --     2 C    0.970
    45   1 H    0.997 --     4 C    0.975
    46   1 H    1.003 --     5 C    0.973
    47   1 H    1.007 --    10 C    0.967
    48   1 H    0.873 --    13 O    0.838
    49   1 H    1.005 --    15 C    0.970
    50   1 H    1.002 --    16 C    0.972
    51   1 H    1.005 --    17 C    0.972
    52   1 H    1.003 --    19 C    0.973
    53   1 H    1.001 --    20 C    0.974
    54   1 H    1.001 --    25 C    0.974
    55   1 H    1.003 --    26 C    0.973
    56   1 H    1.005 --    31 C    0.972
    57   1 H    1.001 --    32 C    0.972
    58   1 H    1.005 --    33 C    0.969
    59   1 H    0.873 --    36 O    0.838
    60   1 H    1.008 --    38 C    0.969
    61   1 H    1.003 --    40 C    0.973
    62   1 H    0.997 --    41 C    0.975
    63  27 Co   3.033 --    69 N    0.638   105 N    0.637    83 N    0.631
                            90 N    0.631
    64   6 C    3.928 --   104 C    1.369    65 C    1.361   106 H    0.970
    65   6 C    3.923 --    64 C    1.361    69 N    1.203    66 C    1.174
    66   6 C    3.959 --    67 C    1.650    65 C    1.174   107 H    0.975
    67   6 C    3.963 --    66 C    1.650    68 C    1.174   108 H    0.972
    68   6 C    3.921 --    70 C    1.322    69 N    1.210    67 C    1.174
    69   7 N    3.346 --    68 C    1.210    65 C    1.203    63 Co   0.638
    70   6 C    3.931 --    80 C    1.327    68 C    1.322    71 C    1.031
    71   6 C    3.988 --    72 C    1.407    79 C    1.385    70 C    1.031
                            77 C    0.102
    72   6 C    3.983 --    71 C    1.407    73 C    1.397   109 H    0.967
                            78 C    0.103
    73   6 C    3.988 --    72 C    1.397    77 C    1.391    74 C    1.004
    74   6 C    3.836 --    76 O    1.693    75 O    1.090    73 C    1.004
    75   8 O    2.099 --    74 C    1.090   110 H    0.838    76 O    0.129
    76   8 O    1.962 --    74 C    1.693    75 O    0.129
    77   6 C    3.986 --    78 C    1.447    73 C    1.391   111 H    0.970
                            71 C    0.102
    78   6 C    3.994 --    77 C    1.447    79 C    1.442   112 H    0.972
                            72 C    0.103
    79   6 C    3.985 --    78 C    1.442    71 C    1.385   113 H    0.972
    80   6 C    3.918 --    70 C    1.327    83 N    1.197    81 C    1.182
    81   6 C    3.958 --    82 C    1.636    80 C    1.182   114 H    0.973
    82   6 C    3.961 --    81 C    1.636    84 C    1.190   115 H    0.974
    83   7 N    3.346 --    84 C    1.228    80 C    1.197    63 Co   0.631
    84   6 C    3.902 --    85 C    1.259    83 N    1.228    82 C    1.190
    85   6 C    3.933 --    84 C    1.259    86 C    1.253   136 C    1.197
    86   6 C    3.902 --    85 C    1.253    90 N    1.236    87 C    1.191
    87   6 C    3.960 --    88 C    1.637    86 C    1.191   116 H    0.974
    88   6 C    3.957 --    87 C    1.637    89 C    1.180   117 H    0.973
    89   6 C    3.918 --    91 C    1.336    90 N    1.190    88 C    1.180
    90   7 N    3.345 --    86 C    1.236    89 C    1.190    63 Co   0.631
    91   6 C    3.931 --    89 C    1.336   101 C    1.313    92 C    1.029
    92   6 C    3.988 --   100 C    1.404    93 C    1.388    91 C    1.029
                            95 C    0.102
    93   6 C    3.987 --    94 C    1.440    92 C    1.388   118 H    0.972
    94   6 C    3.994 --    95 C    1.450    93 C    1.440   119 H    0.972
                           100 C    0.104
    95   6 C    3.985 --    94 C    1.450    96 C    1.387   120 H    0.969
                            92 C    0.102
    96   6 C    3.988 --   100 C    1.401    95 C    1.387    97 C    1.005
    97   6 C    3.836 --    99 O    1.693    98 O    1.090    96 C    1.005
    98   8 O    2.099 --    97 C    1.090   121 H    0.838    99 O    0.129
    99   8 O    1.961 --    97 C    1.693    98 O    0.129
   100   6 C    3.983 --    92 C    1.404    96 C    1.401   122 H    0.969
                            94 C    0.104
   101   6 C    3.920 --    91 C    1.313   105 N    1.217   102 C    1.176
   102   6 C    3.963 --   103 C    1.649   101 C    1.176   123 H    0.973
   103   6 C    3.959 --   102 C    1.649   104 C    1.173   124 H    0.975
   104   6 C    3.923 --    64 C    1.369   105 N    1.197   103 C    1.173
   105   7 N    3.346 --   101 C    1.217   104 C    1.197    63 Co   0.637
   106   1 H    1.000 --    64 C    0.970
   107   1 H    0.997 --    66 C    0.975
   108   1 H    1.003 --    67 C    0.972
   109   1 H    1.008 --    72 C    0.967
   110   1 H    0.873 --    75 O    0.838
   111   1 H    1.005 --    77 C    0.970
   112   1 H    1.002 --    78 C    0.972
   113   1 H    1.005 --    79 C    0.972
   114   1 H    1.003 --    81 C    0.973
   115   1 H    1.001 --    82 C    0.974
   116   1 H    1.001 --    87 C    0.974
   117   1 H    1.003 --    88 C    0.973
   118   1 H    1.005 --    93 C    0.972
   119   1 H    1.001 --    94 C    0.972
   120   1 H    1.005 --    95 C    0.969
   121   1 H    0.873 --    98 O    0.838
   122   1 H    1.007 --   100 C    0.969
   123   1 H    1.003 --   102 C    0.973
   124   1 H    0.997 --   103 C    0.975
   125   6 C    3.920 --   126 C    2.348   129 C    1.349   128 C    0.188
   126   6 C    3.916 --   125 C    2.348   127 C    1.347   130 C    0.187
   127   6 C    3.930 --   128 C    2.434   126 C    1.347
   128   6 C    3.880 --   127 C    2.434    23 C    1.198   125 C    0.188
   129   6 C    3.923 --   130 C    2.427   125 C    1.349
   130   6 C    3.886 --   129 C    2.427   138 C    1.206   126 C    0.187
   131   6 C    3.916 --   132 C    2.349   135 C    1.346   134 C    0.188
   132   6 C    3.920 --   131 C    2.349   133 C    1.348   136 C    0.188
   133   6 C    3.923 --   134 C    2.428   132 C    1.348
   134   6 C    3.886 --   133 C    2.428   159 C    1.205   131 C    0.188
   135   6 C    3.930 --   136 C    2.434   131 C    1.346
   136   6 C    3.881 --   135 C    2.434    85 C    1.197   132 C    0.188
   137  27 Co   3.060 --   143 N    0.629   164 N    0.629   179 N    0.626
                           157 N    0.626
   138   6 C    3.920 --   178 C    1.255   139 C    1.242   130 C    1.206
   139   6 C    3.904 --   143 N    1.246   138 C    1.242   140 C    1.192
   140   6 C    3.960 --   141 C    1.635   139 C    1.192   180 H    0.973
   141   6 C    3.959 --   140 C    1.635   142 C    1.180   181 H    0.972
   142   6 C    3.916 --   144 C    1.336   143 N    1.188   141 C    1.180
   143   7 N    3.339 --   139 C    1.246   142 C    1.188   137 Co   0.629
   144   6 C    3.927 --   142 C    1.336   154 C    1.309   145 C    1.030
   145   6 C    3.988 --   146 C    1.408   153 C    1.385   144 C    1.030
                           151 C    0.102
   146   6 C    3.983 --   145 C    1.408   147 C    1.396   182 H    0.967
                           152 C    0.104
   147   6 C    3.988 --   146 C    1.396   151 C    1.392   148 C    1.004
                           153 C    0.100
   148   6 C    3.836 --   150 O    1.693   149 O    1.091   147 C    1.004
   149   8 O    2.099 --   148 C    1.091   183 H    0.837   150 O    0.129
   150   8 O    1.963 --   148 C    1.693   149 O    0.129
   151   6 C    3.986 --   152 C    1.446   147 C    1.392   184 H    0.970
                           145 C    0.102
   152   6 C    3.994 --   151 C    1.446   153 C    1.443   185 H    0.972
                           146 C    0.104
   153   6 C    3.985 --   152 C    1.443   145 C    1.385   186 H    0.973
                           147 C    0.100
   154   6 C    3.915 --   144 C    1.309   157 N    1.208   155 C    1.187
   155   6 C    3.960 --   156 C    1.631   154 C    1.187   187 H    0.974
   156   6 C    3.959 --   155 C    1.631   158 C    1.192   188 H    0.974
   157   7 N    3.341 --   158 C    1.227   154 C    1.208   137 Co   0.626
   158   6 C    3.903 --   159 C    1.256   157 N    1.227   156 C    1.192
   159   6 C    3.920 --   158 C    1.256   160 C    1.242   134 C    1.205
   160   6 C    3.904 --   164 N    1.245   159 C    1.242   161 C    1.193
   161   6 C    3.960 --   162 C    1.633   160 C    1.193   189 H    0.973
   162   6 C    3.959 --   161 C    1.633   163 C    1.182   190 H    0.972
   163   6 C    3.916 --   165 C    1.333   164 N    1.189   162 C    1.182
   164   7 N    3.339 --   160 C    1.245   163 C    1.189   137 Co   0.629
   165   6 C    3.927 --   163 C    1.333   175 C    1.311   166 C    1.030
   166   6 C    3.988 --   174 C    1.404   167 C    1.387   165 C    1.030
                           169 C    0.102
   167   6 C    3.985 --   168 C    1.441   166 C    1.387   191 H    0.973
                           170 C    0.100
   168   6 C    3.994 --   169 C    1.449   167 C    1.441   192 H    0.972
                           174 C    0.104
   169   6 C    3.985 --   168 C    1.449   170 C    1.389   193 H    0.969
                           166 C    0.102
   170   6 C    3.988 --   174 C    1.400   169 C    1.389   171 C    1.004
                           167 C    0.100
   171   6 C    3.836 --   173 O    1.694   172 O    1.091   170 C    1.004
   172   8 O    2.099 --   171 C    1.091   194 H    0.837   173 O    0.129
   173   8 O    1.962 --   171 C    1.694   172 O    0.129
   174   6 C    3.984 --   166 C    1.404   170 C    1.400   195 H    0.968
                           168 C    0.104
   175   6 C    3.915 --   165 C    1.311   179 N    1.207   176 C    1.187
   176   6 C    3.960 --   177 C    1.632   175 C    1.187   196 H    0.974
   177   6 C    3.959 --   176 C    1.632   178 C    1.192   197 H    0.974
   178   6 C    3.903 --   138 C    1.255   179 N    1.228   177 C    1.192
   179   7 N    3.341 --   178 C    1.228   175 C    1.207   137 Co   0.626
   180   1 H    1.001 --   140 C    0.973
   181   1 H    1.003 --   141 C    0.972
   182   1 H    1.008 --   146 C    0.967
   183   1 H    0.872 --   149 O    0.837
   184   1 H    1.005 --   151 C    0.970
   185   1 H    1.001 --   152 C    0.972
   186   1 H    1.004 --   153 C    0.973
   187   1 H    1.003 --   155 C    0.974
   188   1 H    1.001 --   156 C    0.974
   189   1 H    1.001 --   161 C    0.973
   190   1 H    1.003 --   162 C    0.972
   191   1 H    1.004 --   167 C    0.973
   192   1 H    1.001 --   168 C    0.972
   193   1 H    1.005 --   169 C    0.969
   194   1 H    0.872 --   172 O    0.837
   195   1 H    1.008 --   174 C    0.968
   196   1 H    1.003 --   176 C    0.974
   197   1 H    1.001 --   177 C    0.974
 ---------------------------------------------------------------------------

           -------------------------------------------------
          | TOTAL ENERGY             -376.214888827280 Eh   |
          | GRADIENT NORM               0.000459930486 Eh/α |
          | HOMO-LUMO GAP               0.012009643479 eV   |
           -------------------------------------------------

 * finished run on 2022/07/30 at 00:03:29.332
