   * xtb version 6.5.1 (b24c23e) compiled by 'conda@728c89f4b128' on 2022-07-12
          program call               : xtb Fe_PhNH2_C6_2.xyz --gfn 1 --opt -T 48

   ID    Z sym.   atoms
    1   26 Fe     1, 61
    2    6 C      2-6, 8-12, 14-18, 20-25, 27-31, 33-38, 62-66, 68-72, 74-78,
                  80-85, 87-91, 93-98, 121-126
    3    7 N      7, 13, 19, 26, 32, 39, 67, 73, 79, 86, 92, 99
    4    1 H      40-60, 100-120
########################################################################
[WARNING] Please study the warnings concerning your input carefully
-1- prog_main_parseArguments: Unknown option '-T' provided
########################################################################

          :  Hamiltonian                  GFN1-xTB          :
 * total energy  :  -214.6623185 Eh     change       -0.4112906E-09 Eh
 * total energy  :  -214.7782653 Eh     change       -0.1159468E+00 Eh
 * total energy  :  -214.8281696 Eh     change       -0.4990430E-01 Eh
 * total energy  :  -214.8427428 Eh     change       -0.1457316E-01 Eh
 * total energy  :  -214.8498296 Eh     change       -0.7086777E-02 Eh
 * total energy  :  -214.8535541 Eh     change       -0.3724554E-02 Eh
 * total energy  :  -214.8553114 Eh     change       -0.1757270E-02 Eh
 * total energy  :  -214.8563138 Eh     change       -0.1002434E-02 Eh
 * total energy  :  -214.8569227 Eh     change       -0.6088859E-03 Eh
 * total energy  :  -214.8578222 Eh     change       -0.8995067E-03 Eh
 * total energy  :  -214.8636988 Eh     change       -0.1230806E-04 Eh
 * total energy  :  -214.8637141 Eh     change       -0.1531237E-04 Eh
 * total energy  :  -214.8637274 Eh     change       -0.1335430E-04 Eh
 * total energy  :  -214.8637387 Eh     change       -0.1129643E-04 Eh
 * total energy  :  -214.8637473 Eh     change       -0.8545628E-05 Eh
 * total energy  :  -214.8637539 Eh     change       -0.6654861E-05 Eh
 * total energy  :  -214.8637600 Eh     change       -0.6088151E-05 Eh
 * total energy  :  -214.8637657 Eh     change       -0.5675843E-05 Eh
 * total energy  :  -214.8637705 Eh     change       -0.4820902E-05 Eh
   *** GEOMETRY OPTIMIZATION CONVERGED AFTER 42 ITERATIONS ***

 final structure:
================
126
 xtb: 6.5.1 (b24c23e)
Fe          14.11641917958389        0.02423670354258       -0.03774844998584
C           10.73401873283348        0.11366665521418        0.08226019076250
C           11.38421085801322        1.13131779075242       -0.58562363513666
C           10.71119464749345        2.19047817141690       -1.27387753264285
C           11.66993238951084        3.04953417413902       -1.69517574616395
C           12.92660501607179        2.51930394011544       -1.25187300531032
N           12.74079315410954        1.32524575768074       -0.61025734060272
C           14.14663993682434        3.17198720309847       -1.40817193698333
C           14.15644016631922        4.52627206957847       -2.00338990120859
C           14.88011209841249        4.78983512015464       -3.16946133819031
C           14.89078505005684        6.05579812328756       -3.72670834452621
C           14.18830450886430        7.09754843083551       -3.11468924580747
N           14.16844750615726        8.35650286813699       -3.68745664453891
C           13.45801807276468        6.84117681043494       -1.95097892010815
C           13.44218369989102        5.56936740555006       -1.40760669081733
C           15.35388393425454        2.60223885619705       -1.02393027642147
C           16.62009317482089        3.26496487083126       -1.12237531421264
C           17.56360523845786        2.36262949245341       -0.75862872936643
N           15.52276942323574        1.32324756952165       -0.54899089979517
C           16.87053966226545        1.15815205694467       -0.42630313978439
C           17.52263199552078       -0.03437816846754       -0.08875523018653
C           16.83705985696869       -1.20015433708503        0.27521522402672
C           17.49108057438892       -2.43804608444111        0.55944457563089
C           16.52815518570043       -3.30028879482417        0.96782474134798
C           15.29060592471027       -2.57934843964461        0.94568308318806
N           15.49306359208613       -1.30222904055541        0.47977010623675
C           14.08064422556742       -3.09594356455238        1.39234913306700
C           14.05905930372212       -4.45435548179709        1.97736488529500
C           14.83637434001673       -4.76321525680592        3.09691840858344
C           14.81716126376024       -6.03284375376444        3.64551483731187
C           14.02898644204060       -7.03359833264382        3.07063585600406
N           13.97971566035909       -8.29450454335081        3.63706095517364
C           13.24569216348406       -6.73204551749656        1.95309220744754
C           13.26098268854152       -5.45651173068731        1.41861971459798
C           12.88533164180294       -2.38728783375126        1.30352433904085
C           11.63015386478021       -2.86433550440969        1.80779583427309
C           10.69012025338244       -1.96295501345490        1.43615647755587
C           11.37362819631858       -0.93093707695430        0.71760319613618
N           12.72163649815582       -1.17788505212834        0.68423542626569
H            9.65023718865156        0.13543100223653        0.10839784331967
H            9.64289925308373        2.25126206251463       -1.40915978597585
H           11.54932446234092        3.95870712702355       -2.26164400186450
H           15.42067904863074        3.98476262120795       -3.65508031810666
H           15.44541184702345        6.24505231168064       -4.63929477982161
H           14.94470397312223        8.56200430850972       -4.29577155542889
H           13.93200234260987        9.10800510495296       -3.05947124680655
H           12.90817701808366        7.64491701657045       -1.47358917460291
H           12.88867866957708        5.38264981224711       -0.49383953024846
H           16.76049032432108        4.28968389901880       -1.42553173744941
H           18.63355323825092        2.48768157855446       -0.71412979725505
H           18.54973630623229       -2.61177371587949        0.45194017896222
H           16.63688648608995       -4.33450727695270        1.25124082762203
H           15.44368052689113       -3.98983264051593        3.55426370681060
H           15.41466204261436       -6.25681989703710        4.52246301910343
H           14.77626335566450       -8.54106188408637        4.20244075479165
H           13.67327047626525       -9.02917564277755        3.01966793525588
H           12.62982946642602       -7.50382582837404        1.50439730764593
H           12.66511665710681       -5.23553580839088        0.53981422867849
H           11.49790696182808       -3.76975416231532        2.37759204069702
H            9.62776058397422       -1.97900090862022        1.62158558731794
Fe          30.09260217893596       -0.04525593715439       -0.00022857133947
C           33.47485384387878        0.00490358963837        0.13959417987406
C           32.82471150827518       -1.11437409448709        0.61810283714911
C           33.49764306117706       -2.27377111230333        1.11945586139208
C           32.53895990886686       -3.09943552297019        1.60307824965700
C           31.28243465205556       -2.43623236155228        1.40769488167928
N           31.46821586686577       -1.24146787925259        0.76739041364191
C           30.06259933323856       -2.92649644130786        1.86657455421871
C           30.05276726018317       -4.17099651728488        2.66630705704710
C           29.32776994113144       -5.28788606434664        2.24220966277571
C           29.31681575603792       -6.45190730528224        2.98934468755823
C           30.02024654271749       -6.51809816271575        4.19519439107438
N           30.03956668453049       -7.69121909345743        4.92799052533068
C           30.75198193939970       -5.40724144577060        4.62389008753373
C           30.76815862153217       -4.25155600691065        3.86416780358422
C           28.85547820491076       -2.29075397995553        1.60505971111467
C           27.58939646279962       -2.73815979458889        2.10411549036064
C           26.64584961679277       -1.93655374578392        1.55285156366496
N           28.68652972320486       -1.18851821900725        0.80102903649297
C           27.33880639968883       -0.99480206612418        0.73157184195834
C           26.68660397900694       -0.05538594180040       -0.07681638682093
C           27.37203995376852        0.89160528998718       -0.84809329365476
C           26.71808775919473        1.81162686449146       -1.72375395030440
C           27.68093823562603        2.62847237532258       -2.21688761059039
C           28.91841519566021        2.21245626110556       -1.62752209049826
N           28.71598320145585        1.11891562027233       -0.81987905449109
C           30.12823097162590        2.87066424340323       -1.81082019816562
C           30.15000397435023        4.10872797748198       -2.61992484214625
C           29.37112686203887        5.21191625731137       -2.26021546643765
C           29.39100124864770        6.37079848482344       -3.01512304588248
C           30.18146374981389        6.44538452091749       -4.16523565453679
N           30.23158011437467        7.61458532071039       -4.90283192032031
C           30.96622775305678        5.34792806208153       -4.53000556931410
C           30.95019918630020        4.19751291461348       -3.76241481446666
C           31.32341029364490        2.40552668495371       -1.26847225261238
C           32.57849721479619        3.08973959405815       -1.38666645400296
C           33.51853033290433        2.28184522482158       -0.84084932199723
C           32.83515546197709        1.11219728076971       -0.37875314950549
N           31.48713322218417        1.22094596711793       -0.60292834179557
H           34.55864218935655        0.01459347366220        0.17190121365434
H           34.56583268907858       -2.42064304579203        1.09422239854908
H           32.65947466806822       -4.07426178017627        2.04720202724601
H           28.78633659946096       -5.24723808765801        1.30338996813899
H           28.76112374101160       -7.31659784625986        2.64327014994417
H           29.26271908281579       -8.31102917740620        4.76318208011124
H           30.27576431749791       -7.58299344243686        5.90141271692005
H           31.30274582495680       -5.45402504821519        5.55700842973785
H           31.32278412970610       -3.38732075075851        4.21300158210369
H           27.44910222172285       -3.55649415929151        2.79136587289368
H           25.57596005678715       -1.96807920814083        1.68226421183033
H           25.65949433468007        1.81762376417630       -1.92829735110106
H           27.57218185876316        3.43562339298904       -2.92289056444788
H           28.76220092703826        5.16531940572955       -1.36403637448460
H           28.79231354202438        7.22501563936347       -2.71832066050830
H           29.43374088935004        8.22066471775814       -4.79781594796623
H           30.53933039647278        7.50565792539621       -5.85589528345065
H           31.58387946048896        5.40094997457923       -5.41992608499896
H           31.54719532589087        3.34341202541007       -4.06290085334812
H           32.71075159757140        4.06521248519540       -1.82586069120311
H           34.58083542271118        2.44542659776405       -0.75138548375409
C           22.71967303898856       -0.07453088879083       -0.14012987585011
C           21.48954933208794       -0.07549432169776       -0.13804847460091
C           20.14820499656241       -0.06939395085951       -0.12972814477212
C           18.92274435100979       -0.05974836558667       -0.11434411195689
C           24.06103888724336       -0.07112163343492       -0.12971093600781
C           25.28650955200055       -0.06365515994844       -0.11256103276471

          :  Hamiltonian                  GFN1-xTB          :
         :: total energy            -214.863770515662 Eh    ::
         :: gradient norm              0.000497868461 Eh/a0 ::
         :: HOMO-LUMO gap              0.086848899645 eV    ::
         :: SCC energy              -218.357239608636 Eh    ::
         :: repulsion energy           3.604096142323 Eh    ::

    * Orbital Energies and Occupations

         #    Occupation            Energy/Eh            Energy/eV
      -------------------------------------------------------------
         1        2.0000           -0.7806598             -21.2428
       ...           ...                  ...                  ...
       187        2.0000           -0.3993727             -10.8675
       188        2.0000           -0.3978519             -10.8261
       189        2.0000           -0.3978195             -10.8252
       190        2.0000           -0.3889795             -10.5847
       191        2.0000           -0.3889731             -10.5845
       192        1.9999           -0.3838522             -10.4451
       193        1.9918           -0.3798575             -10.3364
       194        1.9918           -0.3798542             -10.3364
       195        1.9544           -0.3782071             -10.2915
       196        1.9534           -0.3781864             -10.2910
       197        1.9491           -0.3781019             -10.2887
       198        1.9491           -0.3781010             -10.2887
       199        1.6725           -0.3761872             -10.2366 (HOMO)
       200        0.3015           -0.3729956             -10.1497 (LUMO)
       201        0.2365           -0.3727293             -10.1425
       202                         -0.3317174              -9.0265
       203                         -0.3199986              -8.7076
       204                         -0.3191570              -8.6847
       205                         -0.3191450              -8.6844
       206                         -0.2931066              -7.9758
       207                         -0.2918869              -7.9426
       208                         -0.2916294              -7.9356
       209                         -0.2871014              -7.8124
       210                         -0.2799226              -7.6171
       ...                                ...                  ...
       430                          1.5800554              42.9955
      -------------------------------------------------------------
                  HL-Gap            0.0031916 Eh            0.0868 eV

Wiberg/Mayer (AO) data.
largest (>0.10) Wiberg bond orders for each atom

     #   Z sym  total        # sym  WBO       # sym  WBO       # sym  WBO
 ---------------------------------------------------------------------------
     1  26 Fe   3.151 --    39 N    0.671     7 N    0.664    19 N    0.662
                            26 N    0.657
     2   6 C    3.922 --    38 C    1.363     3 C    1.362    40 H    0.970
     3   6 C    3.926 --     2 C    1.362     7 N    1.208     4 C    1.176
     4   6 C    3.959 --     5 C    1.645     3 C    1.176    41 H    0.975
     5   6 C    3.962 --     4 C    1.645     6 C    1.178    42 H    0.973
     6   6 C    3.919 --     8 C    1.307     7 N    1.227     5 C    1.178
     7   7 N    3.376 --     6 C    1.227     3 C    1.208     1 Fe   0.664
     8   6 C    3.925 --    16 C    1.329     6 C    1.307     9 C    1.037
     9   6 C    3.985 --    10 C    1.378    15 C    1.377     8 C    1.037
    10   6 C    3.986 --    11 C    1.471     9 C    1.378    43 H    0.972
    11   6 C    3.988 --    10 C    1.471    12 C    1.352    44 H    0.972
    12   6 C    3.949 --    11 C    1.352    14 C    1.352    13 N    1.118
    13   7 N    3.134 --    12 C    1.118    46 H    0.933    45 H    0.933
    14   6 C    3.988 --    15 C    1.471    12 C    1.352    47 H    0.972
    15   6 C    3.986 --    14 C    1.471     9 C    1.377    48 H    0.973
    16   6 C    3.916 --     8 C    1.329    19 N    1.202    17 C    1.182
    17   6 C    3.958 --    18 C    1.634    16 C    1.182    49 H    0.973
    18   6 C    3.960 --    17 C    1.634    20 C    1.191    50 H    0.974
    19   7 N    3.379 --    20 C    1.245    16 C    1.202     1 Fe   0.662
    20   6 C    3.905 --    21 C    1.250    19 N    1.245    18 C    1.191
    21   6 C    3.922 --    20 C    1.250    22 C    1.249   124 C    1.204
    22   6 C    3.905 --    21 C    1.249    26 N    1.245    23 C    1.192
    23   6 C    3.960 --    24 C    1.633    22 C    1.192    51 H    0.974
    24   6 C    3.958 --    23 C    1.633    25 C    1.183    52 H    0.973
    25   6 C    3.916 --    27 C    1.328    26 N    1.202    24 C    1.183
    26   7 N    3.376 --    22 C    1.245    25 C    1.202     1 Fe   0.657
    27   6 C    3.925 --    25 C    1.328    35 C    1.308    28 C    1.038
    28   6 C    3.985 --    29 C    1.377    34 C    1.377    27 C    1.038
    29   6 C    3.986 --    30 C    1.471    28 C    1.377    53 H    0.972
    30   6 C    3.988 --    29 C    1.471    31 C    1.352    54 H    0.972
    31   6 C    3.949 --    30 C    1.352    33 C    1.351    32 N    1.119
    32   7 N    3.135 --    31 C    1.119    56 H    0.933    55 H    0.933
    33   6 C    3.988 --    34 C    1.471    31 C    1.351    57 H    0.972
    34   6 C    3.986 --    33 C    1.471    28 C    1.377    58 H    0.973
    35   6 C    3.919 --    27 C    1.308    39 N    1.227    36 C    1.178
    36   6 C    3.962 --    37 C    1.646    35 C    1.178    59 H    0.973
    37   6 C    3.959 --    36 C    1.646    38 C    1.175    60 H    0.975
    38   6 C    3.926 --     2 C    1.363    39 N    1.207    37 C    1.175
    39   7 N    3.380 --    35 C    1.227    38 C    1.207     1 Fe   0.671
    40   1 H    1.001 --     2 C    0.970
    41   1 H    0.998 --     4 C    0.975
    42   1 H    1.005 --     5 C    0.973
    43   1 H    1.005 --    10 C    0.972
    44   1 H    0.998 --    11 C    0.972
    45   1 H    0.960 --    13 N    0.933
    46   1 H    0.960 --    13 N    0.933
    47   1 H    0.998 --    14 C    0.972
    48   1 H    1.005 --    15 C    0.973
    49   1 H    1.005 --    17 C    0.973
    50   1 H    1.002 --    18 C    0.974
    51   1 H    1.002 --    23 C    0.974
    52   1 H    1.005 --    24 C    0.973
    53   1 H    1.005 --    29 C    0.972
    54   1 H    0.998 --    30 C    0.972
    55   1 H    0.960 --    32 N    0.933
    56   1 H    0.960 --    32 N    0.933
    57   1 H    0.998 --    33 C    0.972
    58   1 H    1.005 --    34 C    0.973
    59   1 H    1.005 --    36 C    0.973
    60   1 H    0.998 --    37 C    0.975
    61  26 Fe   3.153 --    99 N    0.671    67 N    0.664    79 N    0.662
                            86 N    0.657
    62   6 C    3.922 --    98 C    1.363    63 C    1.362   100 H    0.970
    63   6 C    3.926 --    62 C    1.362    67 N    1.208    64 C    1.176
    64   6 C    3.959 --    65 C    1.645    63 C    1.176   101 H    0.975
    65   6 C    3.962 --    64 C    1.645    66 C    1.178   102 H    0.973
    66   6 C    3.919 --    68 C    1.307    67 N    1.227    65 C    1.178
    67   7 N    3.376 --    66 C    1.227    63 C    1.208    61 Fe   0.664
    68   6 C    3.925 --    76 C    1.329    66 C    1.307    69 C    1.037
    69   6 C    3.985 --    70 C    1.378    75 C    1.377    68 C    1.037
    70   6 C    3.986 --    71 C    1.471    69 C    1.378   103 H    0.972
    71   6 C    3.988 --    70 C    1.471    72 C    1.352   104 H    0.972
    72   6 C    3.949 --    71 C    1.352    74 C    1.352    73 N    1.118
    73   7 N    3.134 --    72 C    1.118   106 H    0.933   105 H    0.933
    74   6 C    3.988 --    75 C    1.471    72 C    1.352   107 H    0.972
    75   6 C    3.986 --    74 C    1.471    69 C    1.377   108 H    0.973
    76   6 C    3.916 --    68 C    1.329    79 N    1.202    77 C    1.182
    77   6 C    3.958 --    78 C    1.634    76 C    1.182   109 H    0.973
    78   6 C    3.960 --    77 C    1.634    80 C    1.191   110 H    0.974
    79   7 N    3.379 --    80 C    1.245    76 C    1.202    61 Fe   0.662
    80   6 C    3.905 --    81 C    1.250    79 N    1.245    78 C    1.191
    81   6 C    3.922 --    80 C    1.250    82 C    1.249   126 C    1.204
    82   6 C    3.905 --    81 C    1.249    86 N    1.245    83 C    1.192
    83   6 C    3.960 --    84 C    1.633    82 C    1.192   111 H    0.974
    84   6 C    3.958 --    83 C    1.633    85 C    1.183   112 H    0.973
    85   6 C    3.916 --    87 C    1.327    86 N    1.202    84 C    1.183
    86   7 N    3.376 --    82 C    1.245    85 C    1.202    61 Fe   0.657
    87   6 C    3.925 --    85 C    1.327    95 C    1.308    88 C    1.038
    88   6 C    3.985 --    89 C    1.377    94 C    1.377    87 C    1.038
    89   6 C    3.986 --    90 C    1.471    88 C    1.377   113 H    0.972
    90   6 C    3.988 --    89 C    1.471    91 C    1.352   114 H    0.972
    91   6 C    3.949 --    90 C    1.352    93 C    1.351    92 N    1.118
    92   7 N    3.134 --    91 C    1.118   116 H    0.933   115 H    0.933
    93   6 C    3.988 --    94 C    1.471    91 C    1.351   117 H    0.972
    94   6 C    3.986 --    93 C    1.471    88 C    1.377   118 H    0.972
    95   6 C    3.919 --    87 C    1.308    99 N    1.227    96 C    1.178
    96   6 C    3.962 --    97 C    1.646    95 C    1.178   119 H    0.973
    97   6 C    3.959 --    96 C    1.646    98 C    1.175   120 H    0.975
    98   6 C    3.926 --    62 C    1.363    99 N    1.207    97 C    1.175
    99   7 N    3.380 --    95 C    1.227    98 C    1.207    61 Fe   0.671
   100   1 H    1.001 --    62 C    0.970
   101   1 H    0.998 --    64 C    0.975
   102   1 H    1.005 --    65 C    0.973
   103   1 H    1.005 --    70 C    0.972
   104   1 H    0.998 --    71 C    0.972
   105   1 H    0.960 --    73 N    0.933
   106   1 H    0.960 --    73 N    0.933
   107   1 H    0.998 --    74 C    0.972
   108   1 H    1.005 --    75 C    0.973
   109   1 H    1.005 --    77 C    0.973
   110   1 H    1.002 --    78 C    0.974
   111   1 H    1.002 --    83 C    0.974
   112   1 H    1.005 --    84 C    0.973
   113   1 H    1.005 --    89 C    0.972
   114   1 H    0.998 --    90 C    0.972
   115   1 H    0.960 --    92 N    0.933
   116   1 H    0.960 --    92 N    0.933
   117   1 H    0.998 --    93 C    0.972
   118   1 H    1.005 --    94 C    0.972
   119   1 H    1.005 --    96 C    0.973
   120   1 H    0.998 --    97 C    0.975
   121   6 C    3.915 --   122 C    2.342   125 C    1.351   124 C    0.187
   122   6 C    3.915 --   121 C    2.342   123 C    1.351   126 C    0.187
   123   6 C    3.923 --   124 C    2.424   122 C    1.351
   124   6 C    3.880 --   123 C    2.424    21 C    1.204   121 C    0.187
   125   6 C    3.923 --   126 C    2.424   121 C    1.351
   126   6 C    3.880 --   125 C    2.424    81 C    1.204   122 C    0.187
 ---------------------------------------------------------------------------

           -------------------------------------------------
          | TOTAL ENERGY             -214.863770515662 Eh   |
          | GRADIENT NORM               0.000497868461 Eh/α |
          | HOMO-LUMO GAP               0.086848899645 eV   |
           -------------------------------------------------

 * finished run on 2022/07/29 at 19:23:30.031
