   * xtb version 6.5.1 (b24c23e) compiled by 'conda@728c89f4b128' on 2022-07-12
          program call               : xtb Zn_p-CP_C8_2.xyz --gfn 1 --opt -T 48

   ID    Z sym.   atoms
    1   30 Zn     1, 63
    2    6 C      2-6, 8-11, 13-24, 27-32, 35-39, 42, 43, 64-68, 70-73,
                  75-86, 89-94, 97-101, 104, 105, 125-132
    3    7 N      7, 12, 33, 34, 69, 74, 95, 96
    4    8 O      25, 26, 40, 41, 87, 88, 102, 103
    5    1 H      44-62, 106-124
########################################################################
[WARNING] Please study the warnings concerning your input carefully
-1- prog_main_parseArguments: Unknown option '-T' provided
########################################################################

          :  Hamiltonian                  GFN1-xTB          :
 * total energy  :  -245.3239363 Eh     change       -0.1778204E-08 Eh
 * total energy  :  -245.5816449 Eh     change       -0.2577086E+00 Eh
 * total energy  :  -245.6629598 Eh     change       -0.8131488E-01 Eh
 * total energy  :  -245.6921970 Eh     change       -0.2923714E-01 Eh
 * total energy  :  -245.7033539 Eh     change       -0.1115696E-01 Eh
 * total energy  :  -245.7082922 Eh     change       -0.4938239E-02 Eh
 * total energy  :  -245.7109407 Eh     change       -0.2648542E-02 Eh
 * total energy  :  -245.7122690 Eh     change       -0.1328354E-02 Eh
 * total energy  :  -245.7140058 Eh     change       -0.1736725E-02 Eh
 * total energy  :  -245.7151512 Eh     change       -0.1145399E-02 Eh
 * total energy  :  -245.7209077 Eh     change       -0.2927650E-04 Eh
 * total energy  :  -245.7209347 Eh     change       -0.2707732E-04 Eh
 * total energy  :  -245.7209540 Eh     change       -0.1920498E-04 Eh
 * total energy  :  -245.7209643 Eh     change       -0.1037639E-04 Eh
 * total energy  :  -245.7209726 Eh     change       -0.8254997E-05 Eh
 * total energy  :  -245.7209705 Eh     change        0.2068491E-05 Eh
 * total energy  :  -245.7209681 Eh     change        0.2415541E-05 Eh
 * total energy  :  -245.7209832 Eh     change       -0.1513322E-04 Eh
 * total energy  :  -245.7209865 Eh     change       -0.3296311E-05 Eh
   *** GEOMETRY OPTIMIZATION CONVERGED AFTER 47 ITERATIONS ***

 final structure:
================
132
 xtb: 6.5.1 (b24c23e)
Zn          15.14459193246722       -0.05941337338887        0.01530741530679
C           11.73544722374853       -0.12237195876452        0.04451848546595
C           12.36536199693398       -0.16997583347790        1.28223104772030
C           11.69115899056508       -0.20698709915331        2.54991297836830
C           12.64986843183652       -0.22460319323573        3.50911412983246
C           13.92293004252207       -0.20910061062321        2.83776845777694
N           13.71490155724608       -0.16926304169745        1.49041259120677
C           15.17445974925176       -0.20002253227896        3.46605855043198
C           16.41368796141295       -0.14574633369113        2.81858537176728
C           17.69332478966092       -0.19323082924850        3.47060684974693
C           18.63950194590905       -0.14024434743427        2.49882673854269
N           16.60702027792365       -0.07642469110297        1.46486431507672
C           17.94891105698988       -0.06684949179689        1.24482082141118
C           18.58025537348844       -0.00619863553318       -0.01431252610088
C           17.92608555959158        0.04320987260772       -1.26199208465276
C           18.59351968905388        0.07802824622307       -2.53014359419431
C           17.62963572756180        0.10962065110135       -3.48539231377970
C           16.36207427132018        0.10226718417733       -2.80829397625225
C           15.11051721392110        0.10743664758741       -3.43440694315303
C           15.09332927885212        0.18123180547758       -4.91564094690993
C           14.53769487589422       -0.85649200309247       -5.66917685605590
C           14.52019518738658       -0.78585742663158       -7.04980495585466
C           15.05291129945826        0.32661551429674       -7.70433046097490
C           15.00610438161002        0.35902116155298       -9.18502643103798
O           15.53347672764047        1.47325361712805       -9.71549808313869
O           14.54357125800153       -0.51682847904630       -9.87094636900051
C           15.60781296538512        1.36622513423661       -6.95706162067910
C           15.62909709593812        1.29036966061933       -5.57544404574929
C           13.87084623631690        0.04813720847362       -2.78515288387219
C           12.58536475930774        0.09996773846999       -3.43068342183790
C           11.64468809297258        0.03195575489053       -2.45602537262325
C           12.34242566971773       -0.05191964896354       -1.20346981066221
N           13.68791906417698       -0.03511432782699       -1.43620764595116
N           16.58032217372587        0.05402840143344       -1.45741394655386
C           15.18690066076370       -0.24878690999295        4.94851565811622
C           14.65866373513269       -1.35059261179328        5.62663511426806
C           14.66980777724814       -1.39137761585173        7.00859883764641
C           15.20380074026093       -0.32839491629927        7.73973218173422
C           15.18727165447519       -0.41497394231253        9.21893170959443
O           15.70887900208144        0.66210359575471        9.82641025430136
O           14.75259019028601       -1.35057368980084        9.84142271566043
C           15.73165286000273        0.77476180973499        7.06776303168599
C           15.72490978310004        0.81013818917106        5.68444505468051
H           10.64987841305374       -0.12916416446199        0.05415561615838
H           10.62006968485309       -0.21070799601208        2.67783908827824
H           12.51179714505900       -0.23505696138655        4.57846848711456
H           17.84665846549611       -0.27203442419178        4.53478941257840
H           19.71163435123661       -0.15570116527452        2.61331684448315
H           19.66345353919806        0.07172747647703       -2.66458001084662
H           17.76351052828944        0.12244520021654       -4.55509117199411
H           14.13424644328394       -1.72658979873628       -5.16369776718167
H           14.09514655468514       -1.59026344328033       -7.64014632520803
H           15.46353735590407        1.41560505172277      -10.68217336798926
H           16.01961060003987        2.23297614723193       -7.46051110414427
H           16.04880610418092        2.10428094887158       -4.99489947079696
H           12.42724657141335        0.19034739279046       -4.49341386608790
H           10.57137939955251        0.04460158446298       -2.56323612759554
H           14.25397643852807       -2.18205116126373        5.06083249745894
H           14.26654127402890       -2.24608683296398        7.54076971510168
H           15.65992241785728        0.52651647033825       10.78655698729797
H           16.14495038507464        1.60314622322790        7.63095101830557
H           16.12450039632636        1.67253700436014        5.16266687613406
Zn          33.75998118287792       -0.05595240420328       -0.02412697018837
C           37.16914727799386       -0.11766319228061       -0.05967597742089
C           36.53960087826352       -0.02096015111929       -1.29471237852533
C           37.21411602027430        0.08881160827849       -2.55801604520100
C           36.25563645597649        0.18281470741773       -3.51300259023887
C           34.98243295044375        0.12097098269739       -2.84462133044380
N           35.19012637502211        0.00453332664482       -1.50167026471464
C           33.73109231892762        0.20236181738943       -3.46797462421126
C           32.49167669847752        0.18121088435143       -2.81897763965966
C           31.21225780088045        0.20843194547827       -3.47256363989289
C           30.26579426118435        0.14888595944000       -2.50142894306412
N           32.29794696552919        0.09444725182060       -1.46631435129104
C           30.95600810113358        0.07797235156294       -1.24704363222735
C           30.32427658272496       -0.00633105769225        0.01053693875625
C           30.97807442130131       -0.09998160050836        1.25584207904102
C           30.31032104542127       -0.21046652436633        2.51947403171705
C           31.27397655025916       -0.28927426409881        3.47221056036804
C           32.54171872366192       -0.21956587595411        2.79900852840413
C           33.79308678698450       -0.28771959187206        3.42177411956075
C           33.80995125603572       -0.38563081191290        4.90160160157673
C           34.36492458023975       -1.50389903807080        5.53003498196791
C           34.38255142466981       -1.59339367297953        6.90955851689107
C           33.85068765259890       -0.56365278743367        7.68840246918415
C           33.89803769216169       -0.70266602664181        9.16296539955712
O           33.37181524062763        0.34344031828298        9.81875954024040
O           34.35974082085751       -1.65273923220489        9.74303338960245
C           33.29638334354347        0.55573247906737        7.06641747093788
C           33.27486300481107        0.64009381741453        5.68528774562219
C           35.03291126557946       -0.27304614696471        2.77026209386682
C           36.31823307012856       -0.29746941435899        3.41773978527614
C           37.25917492377668       -0.25364695984741        2.44194168974841
C           36.56178303644759       -0.19155940824189        1.18792513330820
N           35.21621549687556       -0.20029611609432        1.42076565128798
N           32.32380815537147       -0.11207961032246        1.45149063751215
C           33.71905243147403        0.32474799567802       -4.94623138607106
C           34.24565735814404       -0.69250276470538       -5.74664851512296
C           34.23435019988056       -0.57401132005269       -7.12413785400256
C           33.70216814117494        0.56694394411271       -7.72798571573720
C           33.71808373091245        0.65088257282553       -9.20733845636603
O           33.20047219852763        1.79259840944322       -9.68666579047983
O           34.14922279458920       -0.20850479159989       -9.93351364208738
C           33.17644825634598        1.58646022545211       -6.93347250395522
C           33.18291339319435        1.46225740615514       -5.55528760355867
H           38.25472209493341       -0.12431427159320       -0.06975925081598
H           38.28523586862099        0.09948889369322       -2.68527689965573
H           36.39385915069136        0.29619340930300       -4.57636327511320
H           31.05936952806884        0.25237558201294       -4.53882759963011
H           29.19370601723118        0.14607167254208       -2.61722665435496
H           29.24035019637565       -0.23155296993531        2.65215710466750
H           31.13978396282532       -0.39928627349382        4.53626846993932
H           34.76788311756033       -2.30991107593277        4.92729580834369
H           34.80724291198865       -2.46088413274448        7.40285591204746
H           33.44189555326303        0.17441540194456       10.77227623857775
H           32.88484604196421        1.35855899805558        7.66675756576925
H           32.85559019827852        1.51591623254414        5.20281570216831
H           36.47611358414389       -0.33040335192961        4.48383492512414
H           38.33246392593121       -0.25469911183203        2.55012288920978
H           34.64897246299760       -1.58415438603395       -5.28030615443708
H           34.63590224516975       -1.36255770806539       -7.75119543383660
H           33.24875917713781        1.76809547069490      -10.65606010944911
H           32.76435000202168        2.47474956992859       -7.39757011334644
H           32.78447504223088        2.25940264168305       -4.93761985442312
C           19.98528192587025       -0.00391442916337       -0.02396757203893
C           21.21005673163991       -0.00417596556768       -0.01869626815076
C           22.55260505711264       -0.00517083229532       -0.01495193587900
C           23.78335266590435       -0.00285584483763       -0.00142129359671
C           25.12111670533245       -0.00308363523360        0.00702663947707
C           26.35193050030662       -0.00366867742939        0.01710428544267
C           27.69447164895341       -0.00426891900762        0.02097367700993
C           28.91926948892031       -0.00635372935891        0.02027333456667

          :  Hamiltonian                  GFN1-xTB          :
         :: total energy            -245.720986527478 Eh    ::
         :: gradient norm              0.000807555050 Eh/a0 ::
         :: HOMO-LUMO gap              1.117517052403 eV    ::
         :: SCC energy              -249.437360513814 Eh    ::
         :: repulsion energy           3.830718864830 Eh    ::

    * Orbital Energies and Occupations

         #    Occupation            Energy/Eh            Energy/eV
      -------------------------------------------------------------
         1        2.0000           -0.8312452             -22.6193
       ...           ...                  ...                  ...
       205        2.0000           -0.4301795             -11.7058
       206        2.0000           -0.4301774             -11.7057
       207        2.0000           -0.4296654             -11.6918
       208        2.0000           -0.4296297             -11.6908
       209        2.0000           -0.4293272             -11.6826
       210        2.0000           -0.4293170             -11.6823
       211        2.0000           -0.4290153             -11.6741
       212        2.0000           -0.4195479             -11.4165
       213        2.0000           -0.4108716             -11.1804
       214        2.0000           -0.4019769             -10.9383
       215        2.0000           -0.4019745             -10.9383
       216        2.0000           -0.3948347             -10.7440
       217        2.0000           -0.3856255             -10.4934 (HOMO)
       218                         -0.3445575              -9.3759 (LUMO)
       219                         -0.3366955              -9.1620
       220                         -0.3366913              -9.1618
       221                         -0.3344461              -9.1007
       222                         -0.3139854              -8.5440
       223                         -0.3123065              -8.4983
       224                         -0.3067961              -8.3483
       225                         -0.3067210              -8.3463
       226                         -0.3035646              -8.2604
       227                         -0.3020852              -8.2202
       228                         -0.2946408              -8.0176
       ...                                ...                  ...
       452                          1.6019389              43.5910
      -------------------------------------------------------------
                  HL-Gap            0.0410680 Eh            1.1175 eV

Wiberg/Mayer (AO) data.
largest (>0.10) Wiberg bond orders for each atom

     #   Z sym  total        # sym  WBO       # sym  WBO       # sym  WBO
 ---------------------------------------------------------------------------
     1  30 Zn   1.994 --    33 N    0.459     7 N    0.459    12 N    0.455
                            34 N    0.455
     2   6 C    3.928 --    32 C    1.358     3 C    1.358    44 H    0.971
     3   6 C    3.921 --     2 C    1.358     7 N    1.232     4 C    1.170
     4   6 C    3.960 --     5 C    1.660     3 C    1.170    45 H    0.975
     5   6 C    3.963 --     4 C    1.660     6 C    1.171    46 H    0.973
     6   6 C    3.918 --     8 C    1.312     7 N    1.246     5 C    1.171
     7   7 N    3.293 --     6 C    1.246     3 C    1.232     1 Zn   0.459
     8   6 C    3.932 --     9 C    1.322     6 C    1.312    35 C    1.031
     9   6 C    3.912 --     8 C    1.322    12 N    1.226    10 C    1.178
    10   6 C    3.959 --    11 C    1.647     9 C    1.178    47 H    0.973
    11   6 C    3.962 --    10 C    1.647    13 C    1.186    48 H    0.974
    12   7 N    3.296 --    13 C    1.263     9 C    1.226     1 Zn   0.455
    13   6 C    3.900 --    12 N    1.263    14 C    1.253    11 C    1.186
    14   6 C    3.939 --    15 C    1.253    13 C    1.253   125 C    1.193
    15   6 C    3.900 --    34 N    1.263    14 C    1.253    16 C    1.186
    16   6 C    3.962 --    17 C    1.647    15 C    1.186    49 H    0.974
    17   6 C    3.959 --    16 C    1.647    18 C    1.178    50 H    0.973
    18   6 C    3.912 --    19 C    1.322    34 N    1.226    17 C    1.178
    19   6 C    3.932 --    18 C    1.322    29 C    1.312    20 C    1.031
    20   6 C    3.986 --    28 C    1.386    21 C    1.384    19 C    1.031
    21   6 C    3.987 --    22 C    1.465    20 C    1.384    51 H    0.972
                            27 C    0.102
    22   6 C    3.990 --    21 C    1.465    23 C    1.384    52 H    0.968
                            28 C    0.102
    23   6 C    3.982 --    27 C    1.388    22 C    1.384    24 C    1.011
    24   6 C    3.835 --    26 O    1.689    25 O    1.087    23 C    1.011
    25   8 O    2.095 --    24 C    1.087    53 H    0.839    26 O    0.128
    26   8 O    1.957 --    24 C    1.689    25 O    0.128
    27   6 C    3.991 --    28 C    1.462    23 C    1.388    54 H    0.970
                            21 C    0.102
    28   6 C    3.987 --    27 C    1.462    20 C    1.386    55 H    0.972
                            22 C    0.102
    29   6 C    3.918 --    19 C    1.312    33 N    1.246    30 C    1.171
    30   6 C    3.963 --    31 C    1.660    29 C    1.171    56 H    0.973
    31   6 C    3.960 --    30 C    1.660    32 C    1.170    57 H    0.975
    32   6 C    3.921 --     2 C    1.358    33 N    1.232    31 C    1.170
    33   7 N    3.294 --    29 C    1.246    32 C    1.232     1 Zn   0.459
    34   7 N    3.296 --    15 C    1.263    18 C    1.226     1 Zn   0.455
    35   6 C    3.986 --    43 C    1.386    36 C    1.385     8 C    1.031
    36   6 C    3.987 --    37 C    1.465    35 C    1.385    58 H    0.972
                            42 C    0.102
    37   6 C    3.990 --    36 C    1.465    38 C    1.384    59 H    0.968
                            43 C    0.102
    38   6 C    3.982 --    42 C    1.388    37 C    1.384    39 C    1.011
    39   6 C    3.835 --    41 O    1.689    40 O    1.087    38 C    1.011
    40   8 O    2.095 --    39 C    1.087    60 H    0.839    41 O    0.128
    41   8 O    1.957 --    39 C    1.689    40 O    0.128
    42   6 C    3.991 --    43 C    1.462    38 C    1.388    61 H    0.970
                            36 C    0.102
    43   6 C    3.987 --    42 C    1.462    35 C    1.386    62 H    0.972
                            37 C    0.102
    44   1 H    1.001 --     2 C    0.971
    45   1 H    0.998 --     4 C    0.975
    46   1 H    1.004 --     5 C    0.973
    47   1 H    1.004 --    10 C    0.973
    48   1 H    1.002 --    11 C    0.974
    49   1 H    1.002 --    16 C    0.974
    50   1 H    1.004 --    17 C    0.973
    51   1 H    1.004 --    21 C    0.972
    52   1 H    1.005 --    22 C    0.968
    53   1 H    0.874 --    25 O    0.839
    54   1 H    1.005 --    27 C    0.970
    55   1 H    1.004 --    28 C    0.972
    56   1 H    1.004 --    30 C    0.973
    57   1 H    0.998 --    31 C    0.975
    58   1 H    1.004 --    36 C    0.972
    59   1 H    1.005 --    37 C    0.968
    60   1 H    0.874 --    40 O    0.839
    61   1 H    1.005 --    42 C    0.970
    62   1 H    1.004 --    43 C    0.972
    63  30 Zn   1.994 --    95 N    0.459    69 N    0.459    74 N    0.455
                            96 N    0.455
    64   6 C    3.928 --    94 C    1.358    65 C    1.358   106 H    0.971
    65   6 C    3.921 --    64 C    1.358    69 N    1.233    66 C    1.170
    66   6 C    3.960 --    67 C    1.660    65 C    1.170   107 H    0.975
    67   6 C    3.963 --    66 C    1.660    68 C    1.171   108 H    0.973
    68   6 C    3.918 --    70 C    1.312    69 N    1.245    67 C    1.171
    69   7 N    3.293 --    68 C    1.245    65 C    1.233    63 Zn   0.459
    70   6 C    3.932 --    71 C    1.322    68 C    1.312    97 C    1.030
    71   6 C    3.912 --    70 C    1.322    74 N    1.226    72 C    1.178
    72   6 C    3.959 --    73 C    1.647    71 C    1.178   109 H    0.973
    73   6 C    3.962 --    72 C    1.647    75 C    1.186   110 H    0.974
    74   7 N    3.296 --    75 C    1.263    71 C    1.226    63 Zn   0.455
    75   6 C    3.900 --    74 N    1.263    76 C    1.253    73 C    1.186
    76   6 C    3.939 --    77 C    1.253    75 C    1.253   132 C    1.193
    77   6 C    3.900 --    96 N    1.263    76 C    1.253    78 C    1.186
    78   6 C    3.962 --    79 C    1.647    77 C    1.186   111 H    0.974
    79   6 C    3.959 --    78 C    1.647    80 C    1.178   112 H    0.973
    80   6 C    3.912 --    81 C    1.322    96 N    1.226    79 C    1.178
    81   6 C    3.932 --    80 C    1.322    91 C    1.312    82 C    1.031
    82   6 C    3.986 --    90 C    1.386    83 C    1.384    81 C    1.031
    83   6 C    3.987 --    84 C    1.465    82 C    1.384   113 H    0.972
                            89 C    0.102
    84   6 C    3.990 --    83 C    1.465    85 C    1.384   114 H    0.968
                            90 C    0.102
    85   6 C    3.982 --    89 C    1.388    84 C    1.384    86 C    1.011
    86   6 C    3.835 --    88 O    1.689    87 O    1.087    85 C    1.011
    87   8 O    2.096 --    86 C    1.087   115 H    0.839    88 O    0.128
    88   8 O    1.957 --    86 C    1.689    87 O    0.128
    89   6 C    3.991 --    90 C    1.462    85 C    1.388   116 H    0.970
                            83 C    0.102
    90   6 C    3.987 --    89 C    1.462    82 C    1.386   117 H    0.972
                            84 C    0.102
    91   6 C    3.918 --    81 C    1.312    95 N    1.246    92 C    1.171
    92   6 C    3.963 --    93 C    1.660    91 C    1.171   118 H    0.973
    93   6 C    3.960 --    92 C    1.660    94 C    1.170   119 H    0.975
    94   6 C    3.921 --    64 C    1.358    95 N    1.232    93 C    1.170
    95   7 N    3.294 --    91 C    1.246    94 C    1.232    63 Zn   0.459
    96   7 N    3.296 --    77 C    1.263    80 C    1.226    63 Zn   0.455
    97   6 C    3.986 --   105 C    1.386    98 C    1.385    70 C    1.030
    98   6 C    3.987 --    99 C    1.465    97 C    1.385   120 H    0.972
                           104 C    0.102
    99   6 C    3.990 --    98 C    1.465   100 C    1.384   121 H    0.968
                           105 C    0.102
   100   6 C    3.982 --   104 C    1.388    99 C    1.384   101 C    1.011
   101   6 C    3.835 --   103 O    1.689   102 O    1.087   100 C    1.011
   102   8 O    2.095 --   101 C    1.087   122 H    0.839   103 O    0.128
   103   8 O    1.957 --   101 C    1.689   102 O    0.128
   104   6 C    3.991 --   105 C    1.462   100 C    1.388   123 H    0.970
                            98 C    0.102
   105   6 C    3.987 --   104 C    1.462    97 C    1.386   124 H    0.972
                            99 C    0.102
   106   1 H    1.001 --    64 C    0.971
   107   1 H    0.998 --    66 C    0.975
   108   1 H    1.004 --    67 C    0.973
   109   1 H    1.004 --    72 C    0.973
   110   1 H    1.002 --    73 C    0.974
   111   1 H    1.002 --    78 C    0.974
   112   1 H    1.004 --    79 C    0.973
   113   1 H    1.004 --    83 C    0.972
   114   1 H    1.005 --    84 C    0.968
   115   1 H    0.874 --    87 O    0.839
   116   1 H    1.005 --    89 C    0.970
   117   1 H    1.004 --    90 C    0.972
   118   1 H    1.004 --    92 C    0.973
   119   1 H    0.998 --    93 C    0.975
   120   1 H    1.004 --    98 C    0.972
   121   1 H    1.005 --    99 C    0.968
   122   1 H    0.874 --   102 O    0.839
   123   1 H    1.005 --   104 C    0.970
   124   1 H    1.004 --   105 C    0.972
   125   6 C    3.877 --   126 C    2.438    14 C    1.193   128 C    0.186
   126   6 C    3.934 --   125 C    2.438   127 C    1.345
   127   6 C    3.893 --   128 C    2.335   126 C    1.345   130 C    0.182
   128   6 C    3.925 --   127 C    2.335   129 C    1.370   125 C    0.186
   129   6 C    3.925 --   130 C    2.335   128 C    1.370   132 C    0.186
   130   6 C    3.893 --   129 C    2.335   131 C    1.345   127 C    0.182
   131   6 C    3.934 --   132 C    2.438   130 C    1.345
   132   6 C    3.877 --   131 C    2.438    76 C    1.193   129 C    0.186
 ---------------------------------------------------------------------------

           -------------------------------------------------
          | TOTAL ENERGY             -245.720986527478 Eh   |
          | GRADIENT NORM               0.000807555050 Eh/α |
          | HOMO-LUMO GAP               1.117517052403 eV   |
           -------------------------------------------------

 * finished run on 2022/07/30 at 12:22:25.344
