   * xtb version 6.5.1 (b24c23e) compiled by 'conda@728c89f4b128' on 2022-07-12
          program call               : xtb Cu_PhOH_C8_3.xyz --gfn 1 --opt -T 48

   ID    Z sym.   atoms
    1   29 Cu     1, 59, 133
    2    6 C      2-6, 8-12, 14-18, 20-25, 27-31, 33-38, 60-64, 66-70, 72-76,
                  78-83, 85-89, 91-96, 117-132, 134-138, 140-144, 146-150,
                  152-157, 159-163, 165-170
    3    7 N      7, 19, 26, 39, 65, 77, 84, 97, 139, 151, 158, 171
    4    8 O      13, 32, 71, 90, 145, 164
    5    1 H      40-58, 98-116, 172-189

          :  Hamiltonian                  GFN1-xTB          :
 * total energy  :  -345.5486268 Eh     change       -0.6840708E-08 Eh
 * total energy  :  -345.9956965 Eh     change       -0.4470697E+00 Eh
 * total energy  :  -346.1434646 Eh     change       -0.1477681E+00 Eh
 * total energy  :  -346.2198672 Eh     change       -0.7640265E-01 Eh
 * total energy  :  -346.2852317 Eh     change       -0.6536452E-01 Eh
 * total energy  :  -346.3529361 Eh     change       -0.6770442E-01 Eh
 * total energy  :  -346.4146019 Eh     change       -0.6166573E-01 Eh
 * total energy  :  -346.4506156 Eh     change       -0.3601372E-01 Eh
 * total energy  :  -346.4779389 Eh     change       -0.2732332E-01 Eh
 * total energy  :  -346.4981231 Eh     change       -0.2018414E-01 Eh
 * total energy  :  -346.5939607 Eh     change       -0.3560959E-04 Eh
 * total energy  :  -346.5940020 Eh     change       -0.4136424E-04 Eh
 * total energy  :  -346.5940510 Eh     change       -0.4896399E-04 Eh
 * total energy  :  -346.5940942 Eh     change       -0.4317752E-04 Eh
 * total energy  :  -346.5941260 Eh     change       -0.3186172E-04 Eh
 * total energy  :  -346.5941537 Eh     change       -0.2763274E-04 Eh
 * total energy  :  -346.5941702 Eh     change       -0.1649106E-04 Eh
 * total energy  :  -346.5941831 Eh     change       -0.1293717E-04 Eh
 * total energy  :  -346.5941879 Eh     change       -0.4861248E-05 Eh
   *** GEOMETRY OPTIMIZATION CONVERGED AFTER 61 ITERATIONS ***

 final structure:
================
189
 xtb: 6.5.1 (b24c23e)
Cu          25.98884316338401       -0.01597467552863       -0.02600367907393
C           22.58492741034542       -0.07039681964632       -0.10724031466954
C           23.22645843740781       -1.29754230713309       -0.03086847342048
C           22.55736894439151       -2.56366074809546        0.05714297474237
C           23.52083591431544       -3.51432174017865        0.14315866391061
C           24.78846841451231       -2.83778908251242        0.09651646063806
N           24.57807450475332       -1.49237852053509       -0.00192396103959
C           26.03614181201984       -3.46275441177416        0.16821424858794
C           26.05832594075937       -4.94448051213568        0.25979029324339
C           25.54174235081087       -5.72703173432937       -0.77305641186780
C           25.56552592666933       -7.11098653839483       -0.69364160441988
C           26.10340340298884       -7.72917398698550        0.43263433051591
O           26.14285024238210       -9.08143426706054        0.55401169124583
C           26.61963464864914       -6.95905634176822        1.47312682620418
C           26.59868240203832       -5.57862536096215        1.38092805138168
C           27.26463864156335       -2.79964356881608        0.15715897752879
C           28.54630906017685       -3.44608568747910        0.17228676967963
C           29.48658879630232       -2.46846560947307        0.12796006370149
N           27.44549076162384       -1.44272219090192        0.09417737701737
C           28.78750204564678       -1.21959621685876        0.07955529017597
C           29.41661424550799        0.03640873767367        0.01340031114769
C           28.75130260957643        1.27348841211521       -0.05127663961786
C           29.41303987940816        2.54014950967511       -0.14096634973390
C           28.44420977416396        3.48919623662030       -0.19274602375984
C           27.18229236414219        2.80771778480453       -0.12931550359760
N           27.40311807455362        1.45763355257754       -0.05165486000493
C           25.93458458181803        3.43284175675131       -0.17370372289563
C           25.91342928973237        4.91643169151950       -0.22163495388231
C           26.44854174482473        5.66651783010967        0.82847052658488
C           26.42898732208417        7.04953781028384        0.79408568650009
C           25.87591674231406        7.70558106092883       -0.30407223018348
O           25.87594928103714        9.06372704890118       -0.30735810233502
C           25.34230513135424        6.97120559695785       -1.36048315936784
C           25.35997792911609        5.58561326669235       -1.31336756113295
C           24.70574753768090        2.76764211523749       -0.17559919985563
C           23.41853109295473        3.40786421612989       -0.18505415990425
C           22.48365984722694        2.42535850066600       -0.17660548569549
C           23.18996268934779        1.17682569203457       -0.14884915417480
N           24.53525681867708        1.41327641348062       -0.14557627269361
H           21.49989547911822       -0.08697535652802       -0.11875411858867
H           21.48650379524030       -2.69354014353648        0.06110405037250
H           23.39128305064600       -4.58004784694535        0.24273875147115
H           25.13362413973489       -5.24724161949192       -1.65570690965896
H           25.16957560337827       -7.71432764577092       -1.50357587659134
H           25.76064267910015       -9.51559539314065       -0.22041705778994
H           27.03165200706697       -7.45332851932130        2.34420411545965
H           26.99053782569004       -4.97962900452127        2.19539282006791
H           28.70303814428154       -4.51229356778200        0.19828257326601
H           30.55964826076650       -2.57418359209378        0.12262896390570
H           30.48246986068644        2.67565476116451       -0.16684654549546
H           28.56924920020001        4.55616707451264       -0.28205128582148
H           26.86854862608344        5.15624210479020        1.68808444255271
H           26.83711485532614        7.63311185141417        1.61001073530361
H           25.47040238707188        9.41419583639374       -1.11168026907058
H           24.91720567284768        7.48614806437689       -2.21537231912634
H           24.95577210710087        5.01555936807730       -2.14255229023772
H           23.25717985772471        4.47391340696706       -0.18453852098870
H           21.40941861735771        2.52349198198458       -0.17888577089914
Cu          63.19680845404646        0.00123228383252       -0.01483916282420
C           66.60002589960729        0.04687999542233       -0.12656522540234
C           65.95650071756820        1.27159685208739       -0.22205888414927
C           66.62370094466853        2.53780815470083       -0.32113553116397
C           65.65899021048310        3.49007648013773       -0.36522194050785
C           64.39243158303680        2.81275248137439       -0.30431491735443
N           64.60471812689727        1.46719106717567       -0.21126591067937
C           63.14433764391062        3.44089473013014       -0.30953408295994
C           63.12035672196111        4.92029381092802       -0.43214224939531
C           63.62612782626951        5.54578095296549       -1.57191109729769
C           63.60007563991782        6.92663730710281       -1.69318533594726
C           63.07073385446910        7.70076726874966       -0.66337982469585
O           63.02871464911050        9.05617185223267       -0.73880100791368
C           62.56600466019074        7.08874545526395        0.48244771193236
C           62.58925015349566        5.70952252061229        0.59067730766680
C           61.91734037144533        2.78232169057599       -0.21017403721978
C           60.63447295480049        3.42378069928200       -0.26908415825421
C           59.69600363977458        2.44942474883335       -0.16076696481251
N           61.73896387699011        1.42998772413527       -0.07790601718273
C           60.39722408013092        1.20651793313392       -0.04260634851109
C           59.77011265014148       -0.04708674014223        0.06936556937774
C           60.43708175357052       -1.28155885759774        0.16092208575144
C           59.77697089071562       -2.54918959598659        0.24782373621777
C           60.74708263638482       -3.49581343092164        0.31690079822435
C           62.00817668589335       -2.81097621756124        0.27888747063431
N           61.78560558616768       -1.46299822937935        0.17390061414476
C           63.25659465478543       -3.43507527673800        0.31518177182465
C           63.28079947619873       -4.91052093585698        0.47596119127470
C           62.74894538510146       -5.50598899779328        1.62240977140578
C           62.77373528389516       -6.87978605045415        1.78467566341944
C           63.32901549433736       -7.68301360939193        0.79032058725846
O           63.33501065584451       -9.02774002967798        0.98029344580296
C           63.85879274347141       -7.10408001056391       -0.36045913641364
C           63.83574563606462       -5.72592231165202       -0.51058624622402
C           64.48411354810719       -2.77482213669873        0.21565338197795
C           65.77239970017186       -3.40843269000366        0.29041539434125
C           66.70548056830972       -2.43328781855690        0.15687089683681
C           65.99704208282424       -1.19417394698449        0.01228062708166
N           64.65206427433608       -1.42934706571689        0.05533643319776
H           67.68493389141749        0.06281085064087       -0.14655250958725
H           67.69430895547629        2.66786227899259       -0.34367922097942
H           65.78722193709407        4.55918333673631       -0.42024951280615
H           64.02738953104571        4.94382311062985       -2.37964870694740
H           63.98751720730473        7.40690666860498       -2.58538464165192
H           63.40359588889321        9.37453789089960       -1.57089341311483
H           62.16092546211291        7.70337059111319        1.27678205980948
H           62.20660324173618        5.23430166367309        1.48702586919308
H           60.47543222723679        4.48275893970723       -0.39277266158930
H           58.62271705034184        2.55272055737412       -0.16644957161511
H           58.70761704084868       -2.68774863869002        0.24867247037533
H           60.62342609781206       -4.56520428266383        0.37293686778336
H           62.32777573303508       -4.88037389534919        2.40147922172965
H           62.36842515288435       -7.34305878129665        2.67571690845353
H           63.74249494680345       -9.48733703100666        0.23396853738942
H           64.28549451257973       -7.73357910361469       -1.13401979466928
H           64.23703855855690       -5.27788590556157       -1.41287184584643
H           65.93595391347992       -4.46361374310720        0.43975266645636
H           67.77987884697092       -2.52944696285411        0.16356298335140
C           30.82193704711826        0.05468392105176        0.00077942180047
C           32.04623370593075        0.06653590552123       -0.01364342829756
C           33.38893979631246        0.07471360957672       -0.02930444235452
C           34.61940287192778        0.07662292406972       -0.04674233577524
C           35.95729276140533        0.07481790765355       -0.05949067906269
C           37.18792731038585        0.06769148638147       -0.06636071311531
C           38.53044500682650        0.05789132866186       -0.07151311753848
C           39.75507409590674        0.04528956366218       -0.07081109910626
C           49.43181996109757       -0.07572498526129        0.02190217173305
C           50.65631190387180       -0.08774700441335        0.03969847123050
C           51.99866189104011       -0.09886523506875        0.05676998554998
C           53.22929068895575       -0.10342999360998        0.06743334706529
C           54.56717422809396       -0.10323131617444        0.07699186435690
C           55.79776546832313       -0.09890070460585        0.07950324225280
C           57.14048474724540       -0.08630152592058        0.07865762833831
C           58.36479439476717       -0.06835707447311        0.07934554659511
Cu          44.59375903525392       -0.00635483254923       -0.04118073442097
C           41.15967328015185        0.03284981558824       -0.06719846369524
C           41.81501240055490        1.07872479024854        0.60790421432248
C           41.14378073094955        2.11992310777515        1.32548613672043
C           42.10527647726925        2.93702454043951        1.82643253084600
C           43.37043272722298        2.40276212559404        1.41032771614926
N           43.16058521335975        1.26635714165929        0.67504147509419
C           44.61419069703133        2.95330075533973        1.72786530848402
C           44.62282065503804        4.22953665709670        2.48527834352861
C           45.21063244645257        4.30226918860938        3.75054502529595
C           45.21853871826509        5.48939731819966        4.46114607147862
C           44.64151086136629        6.63064877803179        3.90698803664342
O           44.67126287094361        7.78031531451805        4.62899480128972
C           44.05484966546188        6.57421454421899        2.64485391704128
C           44.04408942152627        5.37803304021287        1.94429740193282
C           45.85024568672917        2.39820767641039        1.38937748763970
C           47.12377991214147        3.00184341818822        1.65972915392743
C           48.07370830967230        2.15981138454535        1.17859664706624
N           46.04371441677980        1.20889097528430        0.73785024519820
C           47.38706876938272        1.04294525810305        0.60343536575147
C           48.02745678260452       -0.05649595201848        0.00308483205048
C           47.37119933396428       -1.13490055243155       -0.61741327594232
C           48.03923289133630       -2.26901387605381       -1.18049747014308
C           47.07798139734555       -3.07766812937664       -1.69537188314998
C           45.81632567914971       -2.43702718747191       -1.45601314125186
N           46.02754060482580       -1.25907880534062       -0.78988543596522
C           44.57396233937026       -2.95209460565999       -1.83309091984945
C           44.56738718238248       -4.21386765489374       -2.61432776767426
C           43.94229498176532       -5.35684870389781       -2.11502195405774
C           43.93740895135019       -6.53682180745300       -2.84275858299355
C           44.55537345317481       -6.58218452604010       -4.09028770073233
O           44.57028784346381       -7.71546771137797       -4.83832545726775
C           45.18038424952823       -5.44657438124573       -4.60231130359386
C           45.18738746596893       -4.27602888479494       -3.86483182451715
C           43.33844048773940       -2.37301671754600       -1.53467160140353
C           42.06801722935795       -2.87217870067054       -1.97757124728758
C           41.11759672294824       -2.04077085263854       -1.47896440232333
C           41.80120617119609       -1.02327365521878       -0.73953407849403
N           43.14315478458442       -1.24051933552099       -0.78917372363736
H           40.07420509296337        2.20219104881445        1.43463022995399
H           41.97307356767940        3.81523857592221        2.43744997401121
H           45.64925610699714        3.41178244822799        4.18685312510026
H           45.66676109647027        5.54663825208378        5.44538340070760
H           44.24082519677006        8.50486409218107        4.15571303608384
H           43.61062032484237        7.46588998771902        2.21555156056523
H           43.59753898479701        5.33822537104634        0.95693345793378
H           47.26913210577766        3.95476361101330        2.14224859352299
H           49.14498275996839        2.28067689306201        1.19848947988416
H           49.10647094661753       -2.42266055305070       -1.17066514251654
H           47.20742866641081       -4.03170671489838       -2.18023669498719
H           43.47130828137510       -5.32653937216833       -1.13875974114771
H           43.45645045231038       -7.42451905037621       -2.44605566955683
H           44.10847365603541       -8.43806291826275       -4.39232376535162
H           45.65338042089098       -5.49503420359363       -5.57535120629861
H           45.66349608173824       -3.38934362710581       -4.26834890110672
H           41.92512496397403       -3.73859133439758       -2.60284543062887
H           40.04815871110640       -2.09744254547175       -1.60472020475437

          :  Hamiltonian                  GFN1-xTB          :
         :: total energy            -346.594187949271 Eh    ::
         :: gradient norm              0.000660332685 Eh/a0 ::
         :: HOMO-LUMO gap              0.000253172607 eV    ::
         :: SCC energy              -352.094363941635 Eh    ::
         :: repulsion energy           5.666981073334 Eh    ::

    * Orbital Energies and Occupations

         #    Occupation            Energy/Eh            Energy/eV
      -------------------------------------------------------------
         1        2.0000           -0.8051555             -21.9094
       ...           ...                  ...                  ...
       305        2.0000           -0.4080270             -11.1030
       306        2.0000           -0.4078002             -11.0968
       307        2.0000           -0.4073932             -11.0857
       308        2.0000           -0.4064244             -11.0594
       309        2.0000           -0.4047003             -11.0125
       310        2.0000           -0.3954188             -10.7599
       311        2.0000           -0.3953498             -10.7580
       312        2.0000           -0.3953169             -10.7571
       313        2.0000           -0.3873875             -10.5413
       314        2.0000           -0.3837392             -10.4421
       315        2.0000           -0.3779519             -10.2846
       316        1.0140           -0.3558421              -9.6830
       317        0.9952           -0.3558020              -9.6819 (HOMO)
       318        0.9908           -0.3557927              -9.6816 (LUMO)
       319        0.0000           -0.3404710              -9.2647
       320                         -0.3334689              -9.0742
       321                         -0.3293434              -8.9619
       322                         -0.3270201              -8.8987
       323                         -0.3269544              -8.8969
       324                         -0.3267889              -8.8924
       325                         -0.3071124              -8.3570
       326                         -0.2992541              -8.1431
       327                         -0.2990343              -8.1371
       328                         -0.2932346              -7.9793
       ...                                ...                  ...
       659                          1.6085598              43.7711
      -------------------------------------------------------------
                  HL-Gap            0.0000093 Eh            0.0003 eV

Wiberg/Mayer (AO) data.
largest (>0.10) Wiberg bond orders for each atom

     #   Z sym  total        # sym  WBO       # sym  WBO       # sym  WBO
 ---------------------------------------------------------------------------
     1  29 Cu   2.189 --    39 N    0.506     7 N    0.506    19 N    0.503
                            26 N    0.503
     2   6 C    3.928 --     3 C    1.361    38 C    1.361    40 H    0.971
     3   6 C    3.918 --     2 C    1.361     7 N    1.229     4 C    1.172
     4   6 C    3.955 --     5 C    1.654     3 C    1.172    41 H    0.976
     5   6 C    3.958 --     4 C    1.654     6 C    1.173    42 H    0.973
     6   6 C    3.912 --     8 C    1.318     7 N    1.239     5 C    1.173
     7   7 N    3.244 --     6 C    1.239     3 C    1.229     1 Cu   0.506
     8   6 C    3.935 --    16 C    1.328     6 C    1.318     9 C    1.027
     9   6 C    3.989 --    10 C    1.394    15 C    1.384     8 C    1.027
    10   6 C    3.988 --    11 C    1.452     9 C    1.394    43 H    0.973
                            14 C    0.105
    11   6 C    3.988 --    10 C    1.452    12 C    1.372    44 H    0.970
                            15 C    0.103
    12   6 C    3.901 --    11 C    1.372    14 C    1.365    13 O    1.040
    13   8 O    2.043 --    12 C    1.040    45 H    0.865
    14   6 C    3.990 --    15 C    1.466    12 C    1.365    46 H    0.971
                            10 C    0.105
    15   6 C    3.988 --    14 C    1.466     9 C    1.384    47 H    0.973
                            11 C    0.103
    16   6 C    3.907 --     8 C    1.328    19 N    1.220    17 C    1.180
    17   6 C    3.955 --    18 C    1.642    16 C    1.180    48 H    0.973
    18   6 C    3.956 --    17 C    1.642    20 C    1.187    49 H    0.974
    19   7 N    3.248 --    20 C    1.257    16 C    1.220     1 Cu   0.503
    20   6 C    3.897 --    21 C    1.258    19 N    1.257    18 C    1.187
    21   6 C    3.939 --    22 C    1.258    20 C    1.258   117 C    1.189
    22   6 C    3.897 --    21 C    1.258    26 N    1.257    23 C    1.187
    23   6 C    3.956 --    24 C    1.642    22 C    1.187    50 H    0.974
    24   6 C    3.955 --    23 C    1.642    25 C    1.180    51 H    0.973
    25   6 C    3.908 --    27 C    1.328    26 N    1.221    24 C    1.180
    26   7 N    3.248 --    22 C    1.257    25 C    1.221     1 Cu   0.503
    27   6 C    3.935 --    25 C    1.328    35 C    1.318    28 C    1.027
    28   6 C    3.989 --    34 C    1.394    29 C    1.384    27 C    1.027
    29   6 C    3.988 --    30 C    1.466    28 C    1.384    52 H    0.973
                            33 C    0.102
    30   6 C    3.990 --    29 C    1.466    31 C    1.364    53 H    0.971
                            34 C    0.105
    31   6 C    3.901 --    33 C    1.372    30 C    1.364    32 O    1.040
    32   8 O    2.043 --    31 C    1.040    54 H    0.865
    33   6 C    3.988 --    34 C    1.452    31 C    1.372    55 H    0.970
                            29 C    0.102
    34   6 C    3.988 --    33 C    1.452    28 C    1.394    56 H    0.973
                            30 C    0.105
    35   6 C    3.912 --    27 C    1.318    39 N    1.239    36 C    1.173
    36   6 C    3.958 --    37 C    1.654    35 C    1.173    57 H    0.973
    37   6 C    3.955 --    36 C    1.654    38 C    1.172    58 H    0.976
    38   6 C    3.918 --     2 C    1.361    39 N    1.229    37 C    1.172
    39   7 N    3.244 --    35 C    1.239    38 C    1.229     1 Cu   0.506
    40   1 H    1.002 --     2 C    0.971
    41   1 H    0.998 --     4 C    0.976
    42   1 H    1.005 --     5 C    0.973
    43   1 H    1.005 --    10 C    0.973
    44   1 H    0.999 --    11 C    0.970
    45   1 H    0.887 --    13 O    0.865
    46   1 H    0.999 --    14 C    0.971
    47   1 H    1.005 --    15 C    0.973
    48   1 H    1.005 --    17 C    0.973
    49   1 H    1.002 --    18 C    0.974
    50   1 H    1.002 --    23 C    0.974
    51   1 H    1.005 --    24 C    0.973
    52   1 H    1.005 --    29 C    0.973
    53   1 H    0.999 --    30 C    0.971
    54   1 H    0.887 --    32 O    0.865
    55   1 H    0.999 --    33 C    0.970
    56   1 H    1.005 --    34 C    0.973
    57   1 H    1.005 --    36 C    0.973
    58   1 H    0.998 --    37 C    0.976
    59  29 Cu   2.192 --    97 N    0.506    65 N    0.506    77 N    0.504
                            84 N    0.504
    60   6 C    3.928 --    96 C    1.361    61 C    1.361    98 H    0.971
    61   6 C    3.918 --    60 C    1.361    65 N    1.229    62 C    1.172
    62   6 C    3.955 --    63 C    1.654    61 C    1.172    99 H    0.976
    63   6 C    3.958 --    62 C    1.654    64 C    1.174   100 H    0.973
    64   6 C    3.912 --    66 C    1.318    65 N    1.239    63 C    1.174
    65   7 N    3.244 --    64 C    1.239    61 C    1.229    59 Cu   0.506
    66   6 C    3.935 --    74 C    1.328    64 C    1.318    67 C    1.027
    67   6 C    3.989 --    68 C    1.394    73 C    1.384    66 C    1.027
    68   6 C    3.988 --    69 C    1.452    67 C    1.394   101 H    0.973
                            72 C    0.105
    69   6 C    3.988 --    68 C    1.452    70 C    1.372   102 H    0.970
                            73 C    0.102
    70   6 C    3.901 --    69 C    1.372    72 C    1.364    71 O    1.040
    71   8 O    2.043 --    70 C    1.040   103 H    0.865
    72   6 C    3.990 --    73 C    1.466    70 C    1.364   104 H    0.971
                            68 C    0.105
    73   6 C    3.988 --    72 C    1.466    67 C    1.384   105 H    0.973
                            69 C    0.102
    74   6 C    3.907 --    66 C    1.328    77 N    1.220    75 C    1.180
    75   6 C    3.955 --    76 C    1.642    74 C    1.180   106 H    0.973
    76   6 C    3.956 --    75 C    1.642    78 C    1.187   107 H    0.974
    77   7 N    3.248 --    78 C    1.257    74 C    1.220    59 Cu   0.504
    78   6 C    3.897 --    79 C    1.258    77 N    1.257    76 C    1.187
    79   6 C    3.939 --    80 C    1.258    78 C    1.258   132 C    1.189
    80   6 C    3.897 --    79 C    1.258    84 N    1.257    81 C    1.187
    81   6 C    3.956 --    82 C    1.642    80 C    1.187   108 H    0.974
    82   6 C    3.955 --    81 C    1.642    83 C    1.180   109 H    0.973
    83   6 C    3.907 --    85 C    1.327    84 N    1.221    82 C    1.180
    84   7 N    3.248 --    80 C    1.257    83 C    1.221    59 Cu   0.504
    85   6 C    3.935 --    83 C    1.327    93 C    1.318    86 C    1.028
    86   6 C    3.989 --    92 C    1.394    87 C    1.384    85 C    1.028
    87   6 C    3.988 --    88 C    1.466    86 C    1.384   110 H    0.973
                            91 C    0.102
    88   6 C    3.990 --    87 C    1.466    89 C    1.364   111 H    0.971
                            92 C    0.105
    89   6 C    3.901 --    91 C    1.372    88 C    1.364    90 O    1.040
    90   8 O    2.043 --    89 C    1.040   112 H    0.865
    91   6 C    3.988 --    92 C    1.452    89 C    1.372   113 H    0.970
                            87 C    0.102
    92   6 C    3.988 --    91 C    1.452    86 C    1.394   114 H    0.973
                            88 C    0.105
    93   6 C    3.912 --    85 C    1.318    97 N    1.239    94 C    1.174
    94   6 C    3.958 --    95 C    1.654    93 C    1.174   115 H    0.973
    95   6 C    3.955 --    94 C    1.654    96 C    1.172   116 H    0.976
    96   6 C    3.918 --    60 C    1.361    97 N    1.229    95 C    1.172
    97   7 N    3.244 --    93 C    1.239    96 C    1.229    59 Cu   0.506
    98   1 H    1.002 --    60 C    0.971
    99   1 H    0.998 --    62 C    0.976
   100   1 H    1.005 --    63 C    0.973
   101   1 H    1.005 --    68 C    0.973
   102   1 H    0.999 --    69 C    0.970
   103   1 H    0.887 --    71 O    0.865
   104   1 H    0.999 --    72 C    0.971
   105   1 H    1.005 --    73 C    0.973
   106   1 H    1.005 --    75 C    0.973
   107   1 H    1.002 --    76 C    0.974
   108   1 H    1.002 --    81 C    0.974
   109   1 H    1.005 --    82 C    0.973
   110   1 H    1.005 --    87 C    0.973
   111   1 H    0.999 --    88 C    0.971
   112   1 H    0.887 --    90 O    0.865
   113   1 H    0.999 --    91 C    0.970
   114   1 H    1.005 --    92 C    0.973
   115   1 H    1.005 --    94 C    0.973
   116   1 H    0.998 --    95 C    0.976
   117   6 C    3.877 --   118 C    2.441    21 C    1.189   120 C    0.187
   118   6 C    3.935 --   117 C    2.441   119 C    1.343
   119   6 C    3.892 --   120 C    2.337   118 C    1.343   122 C    0.182
   120   6 C    3.926 --   119 C    2.337   121 C    1.368   117 C    0.187
   121   6 C    3.924 --   122 C    2.336   120 C    1.368   124 C    0.186
   122   6 C    3.893 --   121 C    2.336   123 C    1.344   119 C    0.182
   123   6 C    3.932 --   124 C    2.438   122 C    1.344
   124   6 C    3.877 --   123 C    2.438   134 C    1.192   121 C    0.186
   125   6 C    3.877 --   126 C    2.438   153 C    1.193   128 C    0.186
   126   6 C    3.932 --   125 C    2.438   127 C    1.344
   127   6 C    3.893 --   128 C    2.336   126 C    1.344   130 C    0.182
   128   6 C    3.924 --   127 C    2.336   129 C    1.368   125 C    0.186
   129   6 C    3.926 --   130 C    2.337   128 C    1.368   132 C    0.187
   130   6 C    3.892 --   129 C    2.337   131 C    1.343   127 C    0.182
   131   6 C    3.935 --   132 C    2.441   130 C    1.343
   132   6 C    3.877 --   131 C    2.441    79 C    1.189   129 C    0.187
   133  29 Cu   2.164 --   158 N    0.498   151 N    0.498   139 N    0.498
                           171 N    0.498
   134   6 C    3.927 --   135 C    1.255   170 C    1.255   124 C    1.192
   135   6 C    3.898 --   139 N    1.259   134 C    1.255   136 C    1.189
   136   6 C    3.954 --   137 C    1.639   135 C    1.189   172 H    0.974
   137   6 C    3.955 --   136 C    1.639   138 C    1.182   173 H    0.973
   138   6 C    3.905 --   140 C    1.322   139 N    1.222   137 C    1.182
   139   7 N    3.241 --   135 C    1.259   138 C    1.222   133 Cu   0.498
   140   6 C    3.930 --   148 C    1.323   138 C    1.322   141 C    1.029
   141   6 C    3.989 --   147 C    1.393   142 C    1.383   140 C    1.029
   142   6 C    3.988 --   143 C    1.467   141 C    1.383   174 H    0.973
                           146 C    0.102
   143   6 C    3.990 --   142 C    1.467   144 C    1.364   175 H    0.971
                           147 C    0.105
   144   6 C    3.901 --   146 C    1.372   143 C    1.364   145 O    1.040
   145   8 O    2.044 --   144 C    1.040   176 H    0.865
   146   6 C    3.988 --   147 C    1.452   144 C    1.372   177 H    0.970
                           142 C    0.102
   147   6 C    3.988 --   146 C    1.452   141 C    1.393   178 H    0.973
                           143 C    0.105
   148   6 C    3.905 --   140 C    1.323   151 N    1.222   149 C    1.182
   149   6 C    3.955 --   150 C    1.640   148 C    1.182   179 H    0.973
   150   6 C    3.955 --   149 C    1.640   152 C    1.188   180 H    0.974
   151   7 N    3.241 --   152 C    1.260   148 C    1.222   133 Cu   0.498
   152   6 C    3.898 --   151 N    1.260   153 C    1.255   150 C    1.188
   153   6 C    3.927 --   154 C    1.255   152 C    1.255   125 C    1.193
   154   6 C    3.898 --   158 N    1.259   153 C    1.255   155 C    1.188
   155   6 C    3.955 --   156 C    1.639   154 C    1.188   181 H    0.974
   156   6 C    3.955 --   155 C    1.639   157 C    1.182   182 H    0.973
   157   6 C    3.905 --   159 C    1.322   158 N    1.222   156 C    1.182
   158   7 N    3.241 --   154 C    1.259   157 C    1.222   133 Cu   0.498
   159   6 C    3.930 --   167 C    1.323   157 C    1.322   160 C    1.029
   160   6 C    3.989 --   161 C    1.393   166 C    1.383   159 C    1.029
   161   6 C    3.988 --   162 C    1.452   160 C    1.393   183 H    0.973
                           165 C    0.105
   162   6 C    3.988 --   161 C    1.452   163 C    1.372   184 H    0.970
                           166 C    0.102
   163   6 C    3.901 --   162 C    1.372   165 C    1.364   164 O    1.040
   164   8 O    2.043 --   163 C    1.040   185 H    0.865
   165   6 C    3.990 --   166 C    1.467   163 C    1.364   186 H    0.971
                           161 C    0.105
   166   6 C    3.988 --   165 C    1.467   160 C    1.383   187 H    0.973
                           162 C    0.102
   167   6 C    3.905 --   159 C    1.323   171 N    1.222   168 C    1.182
   168   6 C    3.955 --   169 C    1.639   167 C    1.182   188 H    0.973
   169   6 C    3.954 --   168 C    1.639   170 C    1.189   189 H    0.974
   170   6 C    3.898 --   171 N    1.260   134 C    1.255   169 C    1.189
   171   7 N    3.240 --   170 C    1.260   167 C    1.222   133 Cu   0.498
   172   1 H    1.002 --   136 C    0.974
   173   1 H    1.005 --   137 C    0.973
   174   1 H    1.005 --   142 C    0.973
   175   1 H    0.999 --   143 C    0.971
   176   1 H    0.887 --   145 O    0.865
   177   1 H    0.999 --   146 C    0.970
   178   1 H    1.005 --   147 C    0.973
   179   1 H    1.005 --   149 C    0.973
   180   1 H    1.002 --   150 C    0.974
   181   1 H    1.002 --   155 C    0.974
   182   1 H    1.005 --   156 C    0.973
   183   1 H    1.005 --   161 C    0.973
   184   1 H    0.999 --   162 C    0.970
   185   1 H    0.887 --   164 O    0.865
   186   1 H    0.999 --   165 C    0.971
   187   1 H    1.005 --   166 C    0.973
   188   1 H    1.005 --   168 C    0.973
   189   1 H    1.002 --   169 C    0.974
 ---------------------------------------------------------------------------

           -------------------------------------------------
          | TOTAL ENERGY             -346.594187949271 Eh   |
          | GRADIENT NORM               0.000660332685 Eh/α |
          | HOMO-LUMO GAP               0.000253172607 eV   |
           -------------------------------------------------

 * finished run on 2022/07/30 at 09:15:09.129
