   * xtb version 6.5.1 (b24c23e) compiled by 'conda@728c89f4b128' on 2022-07-12
          program call               : xtb Co_H_C2_3.xyz --gfn 1 --opt -T 48

   ID    Z sym.   atoms
    1   27 Co     1, 37, 77
    2    6 C      2-6, 8-11, 13-18, 20-24, 38-42, 44-47, 49-54, 56-60, 73-76,
                  78-82, 84-87, 89-94, 96-100
    3    7 N      7, 12, 19, 25, 43, 48, 55, 61, 83, 88, 95, 101
    4    1 H      26-36, 62-72, 102-111

          :  Hamiltonian                  GFN1-xTB          :
 * total energy  :  -200.4599766 Eh     change       -0.4583882E-08 Eh
 * total energy  :  -200.9081923 Eh     change       -0.4482158E+00 Eh
 * total energy  :  -201.0570856 Eh     change       -0.1488932E+00 Eh
 * total energy  :  -201.1694185 Eh     change       -0.1123329E+00 Eh
 * total energy  :  -201.2166627 Eh     change       -0.4724425E-01 Eh
 * total energy  :  -201.2389946 Eh     change       -0.2233189E-01 Eh
 * total energy  :  -201.2522945 Eh     change       -0.1329987E-01 Eh
 * total energy  :  -201.2595507 Eh     change       -0.7256236E-02 Eh
 * total energy  :  -201.2651418 Eh     change       -0.5591086E-02 Eh
 * total energy  :  -201.2704844 Eh     change       -0.5342579E-02 Eh
 * total energy  :  -201.2996021 Eh     change       -0.8416872E-05 Eh
 * total energy  :  -201.2996098 Eh     change       -0.7773904E-05 Eh
 * total energy  :  -201.2996177 Eh     change       -0.7831496E-05 Eh
 * total energy  :  -201.2996265 Eh     change       -0.8815551E-05 Eh
 * total energy  :  -201.2996374 Eh     change       -0.1088111E-04 Eh
 * total energy  :  -201.2996513 Eh     change       -0.1392272E-04 Eh
 * total energy  :  -201.2996686 Eh     change       -0.1736084E-04 Eh
 * total energy  :  -201.2996890 Eh     change       -0.2037973E-04 Eh
 * total energy  :  -201.2996930 Eh     change       -0.3983271E-05 Eh
   *** GEOMETRY OPTIMIZATION CONVERGED AFTER 185 ITERATIONS ***

 final structure:
================
111
 xtb: 6.5.1 (b24c23e)
Co          19.04854612660046        0.33664754004770       -0.51476959179903
C           15.78563035461264       -0.16160998713751        0.12520507647376
C           16.40177339164733       -0.98014410276940       -0.80033081476770
C           15.72470254692855       -1.98959607041657       -1.55998819892589
C           16.60675715065156       -2.43913904636855       -2.48465309607800
C           17.84048495065221       -1.74947081434677       -2.24744965180148
N           17.69879994140281       -0.85202426575528       -1.22358821803460
C           19.03319749735791       -2.05553866701184       -2.87488723450266
C           20.25206986407829       -1.59393823049699       -2.42566214964013
C           21.51523886193795       -2.12666330365536       -2.83827729589964
C           22.45188846061754       -1.57893283534223       -2.02545313017491
N           20.42754190233528       -0.67979557534628       -1.41356632300808
C           21.76738289138545       -0.66325733775019       -1.16522493267018
C           22.41706575330959        0.22465770397656       -0.29768376332495
C           21.74412984903510        1.33464817735888        0.22991146788880
C           22.40320605413293        2.46610333163873        0.80569432197130
C           21.44569211532146        3.39328721313123        1.05294643840791
C           20.19562745428191        2.79838416221623        0.68831172242482
N           20.39966631244900        1.54514997634724        0.15995316036106
C           18.96459498849822        3.34421358910759        0.98268938028671
C           17.78784771584540        2.62453955991721        0.89736529282430
C           16.54442167140812        3.04363356568926        1.47356095614049
C           15.68218362936277        2.00790442505953        1.33602052651695
C           16.38104434821308        0.98156194693819        0.61984522564495
N           17.67275446484910        1.36618086393249        0.37134941993054
H           14.75255506174028       -0.36060863626290        0.38515744810334
H           14.69680842238675       -2.27971331713802       -1.40965440655927
H           16.46391007871562       -3.19028666122184       -3.24538046359766
H           19.02109256819860       -2.78223376209264       -3.67886048728298
H           21.64598597052175       -2.85067691379363       -3.62675664734600
H           23.51798633884518       -1.74001336400480       -2.02346164323069
H           23.46769058037197        2.54169210364752        0.95838106365620
H           21.55439220261185        4.37976809380681        1.47481947359554
H           18.93057192092026        4.33952041125460        1.41023092292921
H           16.38194447829681        3.99993363507886        1.94518960981967
H           14.65423914410632        1.93768876842583        1.65493769142787
Co          40.22159835178738        0.29982786619054       -0.50399246973226
C           43.45524835547588        0.15534692229014        0.40009088209955
C           42.77940809539911        1.34570636763437        0.58049778637031
C           43.38471602169957        2.54994881195716        1.06837363569504
C           42.47152247039848        3.53783028722921        0.90872958632400
C           41.28741017419370        2.92429897859912        0.38422999647849
N           41.49101547695017        1.58633968777747        0.18021240467569
C           40.07658281127101        3.57398890322459        0.23514629336197
C           38.89199804263148        2.90180801865509        0.02276438850021
C           37.59554637891910        3.48870914113165        0.17880552894428
C           36.70001700845256        2.47240303334571        0.12252997955108
N           38.77941399355250        1.54884635885478       -0.19707912162606
C           37.44556333070602        1.27886830782452       -0.13560422344487
C           36.85745573410400        0.03910506957266       -0.42107081634557
C           37.59648313369109       -0.98222491167349       -1.03155245162837
C           37.00935872192264       -2.11386431189122       -1.68023235300419
C           38.01777763448521       -2.77899458445792       -2.29565667016729
C           39.22728972704384       -2.08892871571193       -1.96302686396513
N           38.94832109129755       -0.97584182578724       -1.20567951020555
C           40.49164084594388       -2.56784996493527       -2.23341624270733
C           41.62856867585224       -2.05398682524731       -1.63901374528052
C           42.90534127238642       -2.70511412502171       -1.64692456177442
C           43.70588301554306       -2.00406674674445       -0.80855634724960
C           42.93690960891729       -0.88895755644246       -0.33973291883922
N           41.66478139831754       -0.93837500129522       -0.84660867719924
H           44.47720585420945        0.08201599429894        0.75314530152252
H           44.39157599761146        2.61595345338119        1.44942839862937
H           42.56158307620669        4.58587869950015        1.14706871527755
H           40.03912488539385        4.64254804977683        0.41215281774803
H           37.41484926606495        4.53886648216554        0.34449619784464
H           35.62601756213238        2.51741887240585        0.20556561116134
H           35.95422563523478       -2.33554468416029       -1.68725975957905
H           37.96904508693591       -3.67483343008586       -2.89404574640524
H           40.58630618008281       -3.45923019251506       -2.84257334150715
H           43.13034000316522       -3.60081173149257       -2.20405632618309
H           44.73451051116182       -2.19068073665879       -0.54315239500440
C           23.78348053299713        0.05666518725868       -0.03500300251547
C           24.95630394062306       -0.12693497491381        0.24183966100768
C           34.31435020446786       -0.29990596463856        0.10644257599642
C           35.48895354379263       -0.13860705342249       -0.17632965906907
Co          29.63734631688545       -0.65095101091294        0.94147460995922
C           26.30780191311114       -0.33597073901709        0.54713505265023
C           26.97526451141756        0.57272162511344        1.38101625806240
C           26.31727539256490        1.59675774496422        2.13140479212334
C           27.25122381478753        2.14644082039816        2.94706863486278
C           28.49010123253119        1.49864134643465        2.64405279581899
N           28.29870866083307        0.51739384673852        1.70156679815513
C           29.71951759402280        1.91702361402419        3.11090582169776
C           30.91294779690340        1.48464238491320        2.56861028079789
C           32.17614216159719        2.11709595156976        2.79259912301491
C           33.05855931788082        1.53145339302495        1.94518019051635
N           31.03730732708551        0.48443093085908        1.63557764784702
C           32.34574652780523        0.50227741521623        1.25337903434591
C           32.96196268328866       -0.45820553792233        0.43813098195298
C           32.29640570275039       -1.64140428744039        0.08852970612486
C           32.95426134036062       -2.80512241205198       -0.41908509191534
C           32.02508886779086       -3.79225108075097       -0.46337501227039
C           30.78836181399512       -3.20844181379964       -0.04349967421335
N           30.97653309092652       -1.89568842059753        0.31508168906577
C           29.56155533888051       -3.83293151939827       -0.14335662469886
C           28.36473311904685       -3.15389035789124       -0.03464932168269
C           27.09963119966801       -3.67872064865369       -0.44741370723927
C           26.21328302239571       -2.65436813050806       -0.37700651466020
C           26.92562947066537       -1.52727046828312        0.14054820515752
N           28.23731396328364       -1.83917389694818        0.34171985978992
H           25.26725092675109        1.82973046918376        2.05997058205217
H           27.13502161076728        2.94087671456032        3.66694371053700
H           29.74711986881078        2.71001378033997        3.84935623125404
H           32.34245636889089        2.92467718926570        3.48759495205406
H           34.10817129774116        1.74200857790489        1.81821684330177
H           34.00094727288163       -2.85514383425365       -0.67250678227067
H           32.14249534549979       -4.81580710685198       -0.78182381526245
H           29.53708024436750       -4.87429238276710       -0.44310480515101
H           26.93474158789527       -4.69210647425870       -0.77714373163212
H           25.16152260368778       -2.65832700370701       -0.61384643677891

          :  Hamiltonian                  GFN1-xTB          :
         :: total energy            -201.299693006881 Eh    ::
         :: gradient norm              0.000654914607 Eh/a0 ::
         :: HOMO-LUMO gap              0.020859452569 eV    ::
         :: SCC energy              -204.410310908878 Eh    ::
         :: repulsion energy           3.211164643823 Eh    ::

    * Orbital Energies and Occupations

         #    Occupation            Energy/Eh            Energy/eV
      -------------------------------------------------------------
         1        2.0000           -0.7745307             -21.0761
       ...           ...                  ...                  ...
       176        2.0000           -0.3976346             -10.8202
       177        2.0000           -0.3952622             -10.7556
       178        2.0000           -0.3914256             -10.6512
       179        1.9999           -0.3911492             -10.6437
       180        1.9999           -0.3910903             -10.6421
       181        1.9999           -0.3908982             -10.6369
       182        1.9999           -0.3908921             -10.6367
       183        1.9999           -0.3907239             -10.6321
       184        1.9999           -0.3906817             -10.6310
       185        1.9994           -0.3888189             -10.5803
       186        1.7985           -0.3831400             -10.4258
       187        1.2024           -0.3813402             -10.3768
       188        1.1807           -0.3812931             -10.3755 (HOMO)
       189        0.8195           -0.3805265             -10.3547 (LUMO)
       190                         -0.3459134              -9.4128
       191                         -0.3326987              -9.0532
       192                         -0.3309981              -9.0069
       193                         -0.3285838              -8.9412
       194                         -0.3285620              -8.9406
       195                         -0.3207110              -8.7270
       196                         -0.3017484              -8.2110
       197                         -0.2917372              -7.9386
       198                         -0.2871544              -7.8139
       199                         -0.2856524              -7.7730
       ...                                ...                  ...
       395                          1.3343925              36.3107
      -------------------------------------------------------------
                  HL-Gap            0.0007666 Eh            0.0209 eV

Wiberg/Mayer (AO) data.
largest (>0.10) Wiberg bond orders for each atom

     #   Z sym  total        # sym  WBO       # sym  WBO       # sym  WBO
 ---------------------------------------------------------------------------
     1  27 Co   3.015 --     7 N    0.633    25 N    0.633    19 N    0.627
                            12 N    0.627
     2   6 C    3.925 --    24 C    1.363     3 C    1.362    26 H    0.971
     3   6 C    3.925 --     2 C    1.362     7 N    1.208     4 C    1.171
     4   6 C    3.960 --     5 C    1.653     3 C    1.171    27 H    0.975
     5   6 C    3.962 --     4 C    1.653     6 C    1.172    28 H    0.975
     6   6 C    3.921 --     8 C    1.353     7 N    1.213     5 C    1.172
     7   7 N    3.347 --     6 C    1.213     3 C    1.208     1 Co   0.633
     8   6 C    3.931 --     9 C    1.376     6 C    1.353    29 H    0.971
     9   6 C    3.918 --     8 C    1.376    12 N    1.188    10 C    1.175
    10   6 C    3.956 --    11 C    1.641     9 C    1.175    30 H    0.975
    11   6 C    3.962 --    10 C    1.641    13 C    1.185    31 H    0.971
    12   7 N    3.348 --    13 C    1.246     9 C    1.188     1 Co   0.627
    13   6 C    3.907 --    14 C    1.250    12 N    1.246    11 C    1.185
    14   6 C    3.931 --    13 C    1.250    15 C    1.250    73 C    1.200
    15   6 C    3.907 --    14 C    1.250    19 N    1.246    16 C    1.186
    16   6 C    3.962 --    17 C    1.641    15 C    1.186    32 H    0.970
    17   6 C    3.956 --    16 C    1.641    18 C    1.175    33 H    0.975
    18   6 C    3.918 --    20 C    1.376    19 N    1.187    17 C    1.175
    19   7 N    3.347 --    15 C    1.246    18 C    1.187     1 Co   0.627
    20   6 C    3.931 --    18 C    1.376    21 C    1.352    34 H    0.971
    21   6 C    3.921 --    20 C    1.352    25 N    1.214    22 C    1.172
    22   6 C    3.962 --    23 C    1.653    21 C    1.172    35 H    0.975
    23   6 C    3.960 --    22 C    1.653    24 C    1.171    36 H    0.975
    24   6 C    3.925 --     2 C    1.363    25 N    1.207    23 C    1.171
    25   7 N    3.347 --    21 C    1.214    24 C    1.207     1 Co   0.633
    26   1 H    1.000 --     2 C    0.971
    27   1 H    0.997 --     4 C    0.975
    28   1 H    0.997 --     5 C    0.975
    29   1 H    1.000 --     8 C    0.971
    30   1 H    0.997 --    10 C    0.975
    31   1 H    1.003 --    11 C    0.971
    32   1 H    1.004 --    16 C    0.970
    33   1 H    0.997 --    17 C    0.975
    34   1 H    1.000 --    20 C    0.971
    35   1 H    0.997 --    22 C    0.975
    36   1 H    0.997 --    23 C    0.975
    37  27 Co   3.017 --    61 N    0.633    43 N    0.633    48 N    0.627
                            55 N    0.627
    38   6 C    3.925 --    39 C    1.363    60 C    1.362    62 H    0.971
    39   6 C    3.925 --    38 C    1.363    43 N    1.207    40 C    1.171
    40   6 C    3.960 --    41 C    1.653    39 C    1.171    63 H    0.975
    41   6 C    3.962 --    40 C    1.653    42 C    1.172    64 H    0.975
    42   6 C    3.921 --    44 C    1.352    43 N    1.214    41 C    1.172
    43   7 N    3.347 --    42 C    1.214    39 C    1.207    37 Co   0.633
    44   6 C    3.931 --    45 C    1.377    42 C    1.352    65 H    0.971
    45   6 C    3.918 --    44 C    1.377    48 N    1.186    46 C    1.175
    46   6 C    3.956 --    47 C    1.641    45 C    1.175    66 H    0.975
    47   6 C    3.962 --    46 C    1.641    49 C    1.185    67 H    0.971
    48   7 N    3.348 --    49 C    1.247    45 C    1.186    37 Co   0.627
    49   6 C    3.908 --    50 C    1.249    48 N    1.247    47 C    1.185
    50   6 C    3.930 --    51 C    1.252    49 C    1.249    76 C    1.200
    51   6 C    3.908 --    50 C    1.252    55 N    1.245    52 C    1.186
    52   6 C    3.962 --    53 C    1.641    51 C    1.186    68 H    0.970
    53   6 C    3.956 --    52 C    1.641    54 C    1.175    69 H    0.975
    54   6 C    3.918 --    56 C    1.375    55 N    1.188    53 C    1.175
    55   7 N    3.347 --    51 C    1.245    54 C    1.188    37 Co   0.627
    56   6 C    3.931 --    54 C    1.375    57 C    1.353    70 H    0.971
    57   6 C    3.921 --    56 C    1.353    61 N    1.213    58 C    1.171
    58   6 C    3.962 --    59 C    1.653    57 C    1.171    71 H    0.975
    59   6 C    3.960 --    58 C    1.653    60 C    1.171    72 H    0.975
    60   6 C    3.925 --    38 C    1.362    61 N    1.208    59 C    1.171
    61   7 N    3.347 --    57 C    1.213    60 C    1.208    37 Co   0.633
    62   1 H    1.000 --    38 C    0.971
    63   1 H    0.997 --    40 C    0.975
    64   1 H    0.997 --    41 C    0.975
    65   1 H    1.000 --    44 C    0.971
    66   1 H    0.997 --    46 C    0.975
    67   1 H    1.003 --    47 C    0.971
    68   1 H    1.004 --    52 C    0.970
    69   1 H    0.997 --    53 C    0.975
    70   1 H    1.000 --    56 C    0.971
    71   1 H    0.997 --    58 C    0.975
    72   1 H    0.997 --    59 C    0.975
    73   6 C    3.923 --    74 C    2.546    14 C    1.200
    74   6 C    3.932 --    73 C    2.546    78 C    1.203
    75   6 C    3.932 --    76 C    2.546    90 C    1.202
    76   6 C    3.923 --    75 C    2.546    50 C    1.200
    77  27 Co   3.065 --    88 N    0.628    95 N    0.628    83 N    0.628
                           101 N    0.628
    78   6 C    3.919 --   100 C    1.248    79 C    1.246    74 C    1.203
    79   6 C    3.909 --    83 N    1.247    78 C    1.246    80 C    1.189
    80   6 C    3.960 --    81 C    1.636    79 C    1.189   102 H    0.970
    81   6 C    3.958 --    80 C    1.636    82 C    1.179   103 H    0.975
    82   6 C    3.917 --    84 C    1.365    83 N    1.192    81 C    1.179
    83   7 N    3.343 --    79 C    1.247    82 C    1.192    77 Co   0.628
    84   6 C    3.930 --    82 C    1.365    85 C    1.363   104 H    0.971
    85   6 C    3.917 --    84 C    1.363    88 N    1.194    86 C    1.180
    86   6 C    3.959 --    87 C    1.636    85 C    1.180   105 H    0.975
    87   6 C    3.961 --    86 C    1.636    89 C    1.189   106 H    0.971
    88   7 N    3.344 --    89 C    1.245    85 C    1.194    77 Co   0.628
    89   6 C    3.909 --    90 C    1.247    88 N    1.245    87 C    1.189
    90   6 C    3.919 --    91 C    1.248    89 C    1.247    75 C    1.202
    91   6 C    3.909 --    90 C    1.248    95 N    1.245    92 C    1.189
    92   6 C    3.960 --    93 C    1.636    91 C    1.189   107 H    0.970
    93   6 C    3.958 --    92 C    1.636    94 C    1.179   108 H    0.975
    94   6 C    3.917 --    96 C    1.364    95 N    1.193    93 C    1.179
    95   7 N    3.343 --    91 C    1.245    94 C    1.193    77 Co   0.628
    96   6 C    3.930 --    94 C    1.364    97 C    1.363   109 H    0.971
    97   6 C    3.917 --    96 C    1.363   101 N    1.194    98 C    1.180
    98   6 C    3.958 --    99 C    1.636    97 C    1.180   110 H    0.975
    99   6 C    3.960 --    98 C    1.636   100 C    1.189   111 H    0.971
   100   6 C    3.909 --    78 C    1.248   101 N    1.245    99 C    1.189
   101   7 N    3.344 --   100 C    1.245    97 C    1.194    77 Co   0.628
   102   1 H    1.004 --    80 C    0.970
   103   1 H    0.997 --    81 C    0.975
   104   1 H    1.000 --    84 C    0.971
   105   1 H    0.997 --    86 C    0.975
   106   1 H    1.004 --    87 C    0.971
   107   1 H    1.004 --    92 C    0.970
   108   1 H    0.997 --    93 C    0.975
   109   1 H    1.000 --    96 C    0.971
   110   1 H    0.997 --    98 C    0.975
   111   1 H    1.004 --    99 C    0.971
 ---------------------------------------------------------------------------

           -------------------------------------------------
          | TOTAL ENERGY             -201.299693006881 Eh   |
          | GRADIENT NORM               0.000654914607 Eh/α |
          | HOMO-LUMO GAP               0.020859452569 eV   |
           -------------------------------------------------

 * finished run on 2022/07/29 at 21:54:17.537
