   * xtb version 6.5.1 (b24c23e) compiled by 'conda@728c89f4b128' on 2022-07-12
          program call               : xtb Cu_PhCN_C8_2.xyz --gfn 1 --opt -T 48

   ID    Z sym.   atoms
    1   29 Cu     1, 59
    2    6 C      2-6, 8-13, 15-19, 21-26, 28-33, 35-40, 60-64, 66-71, 73-77,
                  79-84, 86-91, 93-98, 117-124
    3    7 N      7, 14, 20, 27, 34, 41, 65, 72, 78, 85, 92, 99
    4    1 H      42-58, 100-116
########################################################################
[WARNING] Please study the warnings concerning your input carefully
-1- prog_main_parseArguments: Unknown option '-T' provided
########################################################################

          :  Hamiltonian                  GFN1-xTB          :
 * total energy  :  -225.6467493 Eh     change        0.4565550E-08 Eh
 * total energy  :  -225.8492398 Eh     change       -0.2024905E+00 Eh
 * total energy  :  -225.9101115 Eh     change       -0.6087164E-01 Eh
 * total energy  :  -225.9284776 Eh     change       -0.1836612E-01 Eh
 * total energy  :  -225.9362033 Eh     change       -0.7725680E-02 Eh
 * total energy  :  -225.9402602 Eh     change       -0.4056934E-02 Eh
 * total energy  :  -225.9416065 Eh     change       -0.1346251E-02 Eh
 * total energy  :  -225.9444614 Eh     change       -0.2854955E-02 Eh
 * total energy  :  -225.9452425 Eh     change       -0.7811240E-03 Eh
 * total energy  :  -225.9465559 Eh     change       -0.1313413E-02 Eh
 * total energy  :  -225.9506735 Eh     change       -0.5303394E-05 Eh
 * total energy  :  -225.9506795 Eh     change       -0.6018883E-05 Eh
 * total energy  :  -225.9506793 Eh     change        0.1537206E-06 Eh
 * total energy  :  -225.9506811 Eh     change       -0.1794401E-05 Eh
 * total energy  :  -225.9506801 Eh     change        0.1061052E-05 Eh
 * total energy  :  -225.9506812 Eh     change       -0.1145308E-05 Eh
 * total energy  :  -225.9506799 Eh     change        0.1320896E-05 Eh
 * total energy  :  -225.9506877 Eh     change       -0.7794813E-05 Eh
 * total energy  :  -225.9506885 Eh     change       -0.7999540E-06 Eh
   *** GEOMETRY OPTIMIZATION CONVERGED AFTER 50 ITERATIONS ***

 final structure:
================
124
 xtb: 6.5.1 (b24c23e)
Cu          14.32166016549171        0.01639785112965        0.00836636638363
C           10.91804101266698        0.03882027698028        0.13718558181304
C           11.55719958978875        1.25473007229687        0.32704993201491
C           10.88676516911100        2.50754835384971        0.52788909978274
C           11.84919945146921        3.45104023003273        0.67651197478590
C           13.11748277510648        2.78003363266171        0.57979068178122
N           12.90877070892275        1.44970260567309        0.35842248700139
C           14.36563904656952        3.40053485021467        0.67808628024258
C           14.38510199344540        4.85488013424718        0.96766036177155
C           13.83884355394287        5.34758927190743        2.15510004746752
C           13.85774940533723        6.70300257110796        2.43085908087580
C           14.42198695937684        7.59655666040254        1.51554738321489
C           14.44191983098210        8.99218865258434        1.79493971574604
N           14.45240001414584       10.12051176433395        2.02089863062241
C           14.96767993161781        7.10900708553335        0.32432063697516
C           14.95004294055305        5.75169270966156        0.05792268493922
C           15.59626757768229        2.75767646837518        0.52746019208803
C           16.87732146085235        3.38409589848642        0.69489757288604
C           17.81807618524110        2.43102427263053        0.47547412202111
N           15.77744698384360        1.43462363720188        0.22338305834235
C           17.11977069243996        1.21579254465952        0.18095548933523
C           17.74917536947700       -0.00726281582794       -0.11167523375369
C           17.08440482563070       -1.22059114521717       -0.36314632611582
C           17.74324233004708       -2.44447376277376       -0.70790750660426
C           16.77595040865632       -3.38360405267310       -0.86349878750725
C           15.51879381708723       -2.74018330504285       -0.60442931815553
N           15.73934692478532       -1.42041180429996       -0.31210900820161
C           14.27175930755353       -3.36620684039603       -0.66437394663590
C           14.24905216017581       -4.82015874464030       -0.95559031255450
C           13.60717711722039       -5.30280015550722       -2.09845560704886
C           13.58422129197621       -6.65794476141837       -2.37512783058820
C           14.20205163720810       -7.56140144180903       -1.50532636537120
C           14.17662394474805       -8.95675149398694       -1.78569445478969
N           14.15618669173222      -10.08495784799500       -2.01146408669021
C           14.84389730304405       -7.08394260180171       -0.35880176417021
C           14.86743410522492       -5.72686529794100       -0.09153208062825
C           13.04278908131476       -2.72955110256590       -0.47186891369368
C           11.76230341155902       -3.38417733661743       -0.47178625912969
C           10.82615551679928       -2.42874910317481       -0.24981781563391
C           11.52583143000891       -1.18477511749982       -0.10055685024106
N           12.86852557032186       -1.39685895542962       -0.23486564301700
H            9.83373095361648        0.04546797271294        0.17860544058364
H            9.81596752638970        2.63624654551912        0.54081782721372
H           11.71878245293947        4.51076561340861        0.82586911851260
H           13.41173030847864        4.65661235102844        2.87312921768815
H           13.43746823512479        7.07685390238232        3.35716543380002
H           15.40308722503774        7.79898453696264       -0.38897807950564
H           15.36362619995390        5.37883094752749       -0.87230703692714
H           17.03343963098088        4.41674276734360        0.96172864860257
H           18.89093149958079        2.53086884057335        0.51491462722307
H           18.80927368739260       -2.55853851569726       -0.82281084359032
H           16.89821900517746       -4.41739538587012       -1.14342434817193
H           13.13732260544939       -4.60441083001649       -2.78173382580982
H           13.08897387434440       -7.02405301228547       -3.26680236479603
H           15.32089172353191       -7.78158606320495        0.31956096574362
H           15.35549393778086       -5.36169485930688        0.80503101546971
H           11.60734053565594       -4.44199516120270       -0.61083537399807
H            9.75593485497069       -2.54361722701228       -0.18086752959669
Cu          32.91915281110488       -0.01891109773221        0.00968960190179
C           36.32268775579433       -0.03401133923643        0.13888272967465
C           35.68388697009596       -1.23906704674420        0.38939653954127
C           36.35455669586482       -2.48042421375133        0.65134978606209
C           35.39229547765606       -3.41471041850584        0.85065444611768
C           34.12390629923144       -2.74881281911658        0.72430118036259
N           34.33235586396083       -1.43174548246178        0.43413103156543
C           32.87572327257044       -3.36204663608232        0.86107977323271
C           32.85633013588902       -4.79842125026303        1.22910609060202
C           33.41194306228511       -5.22734439313252        2.43683595546554
C           33.39314258122999       -6.56577097480733        2.78572358167352
C           32.81941179451536       -7.50641071166342        1.92509074126333
C           32.80131247738368       -8.88484762750804        2.27974911008641
N           32.78920280054183       -9.99907284472649        2.56706146601516
C           32.26417148942789       -7.08290916288578        0.71394178034277
C           32.28200018530764       -5.74207359227445        0.37419872059780
C           31.64495253878213       -2.72697856960752        0.68090185379485
C           30.36408373670751       -3.34167892739473        0.88847771083582
C           29.42314039511924       -2.40210472432037        0.61762828282650
N           31.46355730710172       -1.42316427850029        0.30294106226684
C           30.12116529380695       -1.20633211455967        0.25169961583745
C           29.49173245401241       -0.00229841708113       -0.11108561727870
C           30.15659050275809        1.19442865479297       -0.43238020845456
C           29.49794790298178        2.39580588563398       -0.84916420097841
C           30.46502249656372        3.32536818711150       -1.05537948203384
C           31.72181889500628        2.69913804234349       -0.75562543666711
N           31.50135926813730        1.39791525324919       -0.38944414875229
C           32.96849859937367        3.32250611165345       -0.84465620396733
C           32.99106094943335        4.75834676124198       -1.21457036696647
C           33.64133699827499        5.17918556669820       -2.37700880954605
C           33.66459278969731        6.51723745882892       -2.72706143641130
C           33.03836575096945        7.46562885103507       -1.91285865283642
C           33.06454210278828        8.84388367959022       -2.26781982011866
N           33.08574747345063        9.95808003868440       -2.55490949241916
C           32.38763920724846        7.05016963964863       -0.74733427989834
C           32.36405879567618        5.70969050292131       -0.40647683709796
C           34.19726039258659        2.69844024905723       -0.61315857626313
C           35.47716387944338        3.35357284045854       -0.64219534432027
C           36.41349213900937        2.41152718580168       -0.36950906229369
C           35.71445940112019        1.17600324595610       -0.15957456874617
N           34.37190346547739        1.37984336543869       -0.30749161318049
H           37.40700773833859       -0.03825299555015        0.18037540201516
H           37.42534832119156       -2.60885830111771        0.66731312217772
H           35.52297562442713       -4.46560232031862        1.05287577120318
H           33.84634668377404       -4.49948827551049        3.11283673469487
H           33.82100441382180       -6.88990959057501        3.72717543769682
H           31.82138520285971       -7.80947949270870        0.04275369874744
H           31.86123975749896       -5.41933450521471       -0.57143769040219
H           30.20814839970546       -4.35702307657072        1.21512266178406
H           28.35037502332666       -2.49875114693455        0.66625500084309
H           28.43220188029601        2.50200673959882       -0.97384396783388
H           30.34282104145353        4.34116077907627       -1.39484277041202
H           34.11755534774472        4.44539131944499       -3.01744683513381
H           34.16667105909085        6.83504491725910       -3.63329162553527
H           31.90374751938097        7.78283847618653       -0.11213627434651
H           31.86913742804798        5.39316702448778        0.50468103348955
H           35.63163288248244        4.40323054463992       -0.83374485490394
H           37.48339927640550        2.53086086898064       -0.30330757173075
C           19.15420415582235       -0.01638312697065       -0.15070615260036
C           20.37824637012357       -0.01582168689014       -0.17793126144076
C           21.72097495826398       -0.01461373546091       -0.19952945550207
C           22.95143752872016       -0.01203892463169       -0.20867510131983
C           24.28953558997441       -0.00613600836029       -0.20792501716363
C           25.51994229764917        0.00319261421492       -0.19791837732591
C           26.86266601782358        0.00728535174207       -0.17720522247552
C           28.08678212383190        0.00417039349999       -0.15254274819075

          :  Hamiltonian                  GFN1-xTB          :
         :: total energy            -225.950688483894 Eh    ::
         :: gradient norm              0.000752190346 Eh/a0 ::
         :: HOMO-LUMO gap              0.001864375828 eV    ::
         :: SCC energy              -229.804957948194 Eh    ::
         :: repulsion energy           3.965736848689 Eh    ::

    * Orbital Energies and Occupations

         #    Occupation            Energy/Eh            Energy/eV
      -------------------------------------------------------------
         1        2.0000           -0.7756457             -21.1064
       ...           ...                  ...                  ...
       198        2.0000           -0.4224998             -11.4968
       199        2.0000           -0.4193827             -11.4120
       200        2.0000           -0.4193687             -11.4116
       201        2.0000           -0.4192826             -11.4093
       202        2.0000           -0.4191868             -11.4067
       203        2.0000           -0.4191756             -11.4063
       204        2.0000           -0.4190757             -11.4036
       205        2.0000           -0.4165695             -11.3354
       206        2.0000           -0.4070145             -11.0754
       207        2.0000           -0.4070018             -11.0751
       208        2.0000           -0.4007075             -10.9038
       209        2.0000           -0.3927871             -10.6883
       210        1.0180           -0.3668685              -9.9830 (HOMO)
       211        0.9820           -0.3668000              -9.9811 (LUMO)
       212                         -0.3487444              -9.4898
       213                         -0.3409057              -9.2765
       214                         -0.3408533              -9.2751
       215                         -0.3398688              -9.2483
       216                         -0.3150458              -8.5728
       217                         -0.3124685              -8.5027
       218                         -0.3060323              -8.3276
       219                         -0.3027937              -8.2394
       220                         -0.3027637              -8.2386
       221                         -0.3018377              -8.2134
       ...                                ...                  ...
       438                          1.5984596              43.4963
      -------------------------------------------------------------
                  HL-Gap            0.0000685 Eh            0.0019 eV

Wiberg/Mayer (AO) data.
largest (>0.10) Wiberg bond orders for each atom

     #   Z sym  total        # sym  WBO       # sym  WBO       # sym  WBO
 ---------------------------------------------------------------------------
     1  29 Cu   2.180 --    41 N    0.504     7 N    0.503    20 N    0.500
                            27 N    0.500
     2   6 C    3.930 --     3 C    1.362    40 C    1.362    42 H    0.971
     3   6 C    3.916 --     2 C    1.362     7 N    1.229     4 C    1.170
     4   6 C    3.955 --     5 C    1.657     3 C    1.170    43 H    0.975
     5   6 C    3.958 --     4 C    1.657     6 C    1.171    44 H    0.973
     6   6 C    3.913 --     8 C    1.317     7 N    1.241     5 C    1.171
     7   7 N    3.243 --     6 C    1.241     3 C    1.229     1 Cu   0.503
     8   6 C    3.934 --    17 C    1.325     6 C    1.317     9 C    1.030
     9   6 C    3.963 --    16 C    1.385    10 C    1.385     8 C    1.030
    10   6 C    3.987 --    11 C    1.464     9 C    1.385    45 H    0.971
                            15 C    0.102
    11   6 C    3.993 --    10 C    1.464    12 C    1.364    46 H    0.972
                            16 C    0.102
    12   6 C    3.984 --    15 C    1.364    11 C    1.364    13 C    1.098
    13   6 C    3.958 --    14 N    2.819    12 C    1.098
    14   7 N    2.973 --    13 C    2.819
    15   6 C    3.993 --    16 C    1.464    12 C    1.364    47 H    0.972
                            10 C    0.102
    16   6 C    3.987 --    15 C    1.464     9 C    1.385    48 H    0.971
                            11 C    0.102
    17   6 C    3.908 --     8 C    1.325    20 N    1.223    18 C    1.178
    18   6 C    3.954 --    19 C    1.643    17 C    1.178    49 H    0.973
    19   6 C    3.956 --    18 C    1.643    21 C    1.186    50 H    0.974
    20   7 N    3.247 --    21 C    1.257    17 C    1.223     1 Cu   0.500
    21   6 C    3.896 --    22 C    1.259    20 N    1.257    19 C    1.186
    22   6 C    3.940 --    23 C    1.259    21 C    1.259   117 C    1.189
    23   6 C    3.896 --    22 C    1.259    27 N    1.257    24 C    1.186
    24   6 C    3.956 --    25 C    1.643    23 C    1.186    51 H    0.974
    25   6 C    3.954 --    24 C    1.643    26 C    1.178    52 H    0.973
    26   6 C    3.908 --    28 C    1.325    27 N    1.223    25 C    1.178
    27   7 N    3.247 --    23 C    1.257    26 C    1.223     1 Cu   0.500
    28   6 C    3.934 --    26 C    1.325    37 C    1.317    29 C    1.031
    29   6 C    3.963 --    36 C    1.385    30 C    1.385    28 C    1.031
    30   6 C    3.987 --    31 C    1.464    29 C    1.385    53 H    0.971
                            35 C    0.102
    31   6 C    3.993 --    30 C    1.464    32 C    1.364    54 H    0.972
                            36 C    0.102
    32   6 C    3.984 --    35 C    1.364    31 C    1.364    33 C    1.098
    33   6 C    3.958 --    34 N    2.819    32 C    1.098
    34   7 N    2.973 --    33 C    2.819
    35   6 C    3.993 --    36 C    1.464    32 C    1.364    55 H    0.972
                            30 C    0.102
    36   6 C    3.987 --    35 C    1.464    29 C    1.385    56 H    0.971
                            31 C    0.102
    37   6 C    3.913 --    28 C    1.317    41 N    1.241    38 C    1.171
    38   6 C    3.958 --    39 C    1.656    37 C    1.171    57 H    0.973
    39   6 C    3.955 --    38 C    1.656    40 C    1.170    58 H    0.975
    40   6 C    3.916 --     2 C    1.362    41 N    1.229    39 C    1.170
    41   7 N    3.243 --    37 C    1.241    40 C    1.229     1 Cu   0.504
    42   1 H    1.001 --     2 C    0.971
    43   1 H    0.997 --     4 C    0.975
    44   1 H    1.004 --     5 C    0.973
    45   1 H    1.003 --    10 C    0.971
    46   1 H    1.000 --    11 C    0.972
    47   1 H    1.000 --    15 C    0.972
    48   1 H    1.004 --    16 C    0.971
    49   1 H    1.004 --    18 C    0.973
    50   1 H    1.002 --    19 C    0.974
    51   1 H    1.001 --    24 C    0.974
    52   1 H    1.004 --    25 C    0.973
    53   1 H    1.004 --    30 C    0.971
    54   1 H    1.000 --    31 C    0.972
    55   1 H    1.000 --    35 C    0.972
    56   1 H    1.004 --    36 C    0.971
    57   1 H    1.004 --    38 C    0.973
    58   1 H    0.997 --    39 C    0.975
    59  29 Cu   2.180 --    99 N    0.504    65 N    0.503    78 N    0.500
                            85 N    0.500
    60   6 C    3.930 --    61 C    1.362    98 C    1.362   100 H    0.971
    61   6 C    3.916 --    60 C    1.362    65 N    1.229    62 C    1.170
    62   6 C    3.955 --    63 C    1.657    61 C    1.170   101 H    0.975
    63   6 C    3.958 --    62 C    1.657    64 C    1.171   102 H    0.973
    64   6 C    3.913 --    66 C    1.317    65 N    1.241    63 C    1.171
    65   7 N    3.243 --    64 C    1.241    61 C    1.229    59 Cu   0.503
    66   6 C    3.934 --    75 C    1.325    64 C    1.317    67 C    1.031
    67   6 C    3.963 --    74 C    1.385    68 C    1.385    66 C    1.031
    68   6 C    3.987 --    69 C    1.464    67 C    1.385   103 H    0.971
                            73 C    0.102
    69   6 C    3.993 --    68 C    1.464    70 C    1.364   104 H    0.972
                            74 C    0.102
    70   6 C    3.984 --    73 C    1.364    69 C    1.364    71 C    1.098
    71   6 C    3.958 --    72 N    2.819    70 C    1.098
    72   7 N    2.973 --    71 C    2.819
    73   6 C    3.993 --    74 C    1.464    70 C    1.364   105 H    0.972
                            68 C    0.102
    74   6 C    3.987 --    73 C    1.464    67 C    1.385   106 H    0.971
                            69 C    0.102
    75   6 C    3.908 --    66 C    1.325    78 N    1.223    76 C    1.178
    76   6 C    3.954 --    77 C    1.643    75 C    1.178   107 H    0.973
    77   6 C    3.956 --    76 C    1.643    79 C    1.186   108 H    0.974
    78   7 N    3.247 --    79 C    1.257    75 C    1.223    59 Cu   0.500
    79   6 C    3.896 --    80 C    1.259    78 N    1.257    77 C    1.186
    80   6 C    3.940 --    81 C    1.259    79 C    1.259   124 C    1.189
    81   6 C    3.896 --    80 C    1.259    85 N    1.257    82 C    1.186
    82   6 C    3.956 --    83 C    1.643    81 C    1.186   109 H    0.974
    83   6 C    3.954 --    82 C    1.643    84 C    1.178   110 H    0.973
    84   6 C    3.908 --    86 C    1.325    85 N    1.223    83 C    1.178
    85   7 N    3.247 --    81 C    1.257    84 C    1.223    59 Cu   0.500
    86   6 C    3.934 --    84 C    1.325    95 C    1.317    87 C    1.031
    87   6 C    3.963 --    94 C    1.385    88 C    1.385    86 C    1.031
    88   6 C    3.987 --    89 C    1.464    87 C    1.385   111 H    0.971
                            93 C    0.102
    89   6 C    3.993 --    88 C    1.464    90 C    1.364   112 H    0.972
                            94 C    0.102
    90   6 C    3.984 --    93 C    1.364    89 C    1.364    91 C    1.098
    91   6 C    3.958 --    92 N    2.819    90 C    1.098
    92   7 N    2.973 --    91 C    2.819
    93   6 C    3.993 --    94 C    1.464    90 C    1.364   113 H    0.972
                            88 C    0.102
    94   6 C    3.987 --    93 C    1.464    87 C    1.385   114 H    0.971
                            89 C    0.102
    95   6 C    3.913 --    86 C    1.317    99 N    1.241    96 C    1.171
    96   6 C    3.958 --    97 C    1.656    95 C    1.171   115 H    0.973
    97   6 C    3.955 --    96 C    1.656    98 C    1.170   116 H    0.975
    98   6 C    3.916 --    60 C    1.362    99 N    1.229    97 C    1.170
    99   7 N    3.243 --    95 C    1.241    98 C    1.229    59 Cu   0.504
   100   1 H    1.001 --    60 C    0.971
   101   1 H    0.997 --    62 C    0.975
   102   1 H    1.004 --    63 C    0.973
   103   1 H    1.004 --    68 C    0.971
   104   1 H    1.000 --    69 C    0.972
   105   1 H    1.000 --    73 C    0.972
   106   1 H    1.004 --    74 C    0.971
   107   1 H    1.004 --    76 C    0.973
   108   1 H    1.002 --    77 C    0.974
   109   1 H    1.001 --    82 C    0.974
   110   1 H    1.004 --    83 C    0.973
   111   1 H    1.004 --    88 C    0.971
   112   1 H    1.000 --    89 C    0.972
   113   1 H    1.000 --    93 C    0.972
   114   1 H    1.004 --    94 C    0.971
   115   1 H    1.004 --    96 C    0.973
   116   1 H    0.997 --    97 C    0.975
   117   6 C    3.878 --   118 C    2.442    22 C    1.189   120 C    0.187
   118   6 C    3.936 --   117 C    2.442   119 C    1.342
   119   6 C    3.894 --   120 C    2.339   118 C    1.342   122 C    0.183
   120   6 C    3.926 --   119 C    2.339   121 C    1.367   117 C    0.187
   121   6 C    3.926 --   122 C    2.339   120 C    1.367   124 C    0.187
   122   6 C    3.894 --   121 C    2.339   123 C    1.342   119 C    0.183
   123   6 C    3.936 --   124 C    2.442   122 C    1.342
   124   6 C    3.878 --   123 C    2.442    80 C    1.189   121 C    0.187
 ---------------------------------------------------------------------------

           -------------------------------------------------
          | TOTAL ENERGY             -225.950688483894 Eh   |
          | GRADIENT NORM               0.000752190346 Eh/α |
          | HOMO-LUMO GAP               0.001864375828 eV   |
           -------------------------------------------------

 * finished run on 2022/07/30 at 14:38:51.390
