   * xtb version 6.5.1 (b24c23e) compiled by 'conda@728c89f4b128' on 2022-07-12
          program call               : xtb Fe_C2Py_C4_3.xyz --gfn 1 --opt -T 48

   ID    Z sym.   atoms
    1   26 Fe     1, 59, 125
    2    6 C      2-6, 8-13, 15-19, 21-26, 28-33, 35-40, 60-64, 66-71, 73-77,
                  79-84, 86-91, 93-98, 117-124, 126-130, 132-137, 139-143,
                  145-150, 152-157, 159-164
    3    7 N      7, 14, 20, 27, 34, 41, 65, 72, 78, 85, 92, 99, 131, 138,
                  144, 151, 158, 165
    4    1 H      42-58, 100-116, 166-181
########################################################################
[WARNING] Please study the warnings concerning your input carefully
-1- prog_main_parseArguments: Unknown option '-T' provided
########################################################################

          :  Hamiltonian                  GFN1-xTB          :
 * total energy  :  -324.6848069 Eh     change       -0.6670064E-08 Eh
 * total energy  :  -324.9335092 Eh     change       -0.2487024E+00 Eh
 * total energy  :  -325.0742669 Eh     change       -0.1407576E+00 Eh
 * total energy  :  -325.1611739 Eh     change       -0.8690701E-01 Eh
 * total energy  :  -325.2150595 Eh     change       -0.5388559E-01 Eh
 * total energy  :  -325.2464394 Eh     change       -0.3137992E-01 Eh
 * total energy  :  -325.2686997 Eh     change       -0.2226033E-01 Eh
 * total energy  :  -325.2820770 Eh     change       -0.1337733E-01 Eh
 * total energy  :  -325.2910471 Eh     change       -0.8970119E-02 Eh
 * total energy  :  -325.2982606 Eh     change       -0.7213489E-02 Eh
 * total energy  :  -325.3260962 Eh     change       -0.2150242E-04 Eh
 * total energy  :  -325.3261059 Eh     change       -0.9674075E-05 Eh
 * total energy  :  -325.3261083 Eh     change       -0.2419353E-05 Eh
 * total energy  :  -325.3261112 Eh     change       -0.2917163E-05 Eh
 * total energy  :  -325.3261227 Eh     change       -0.1144073E-04 Eh
 * total energy  :  -325.3260659 Eh     change        0.5678154E-04 Eh
 * total energy  :  -325.3261249 Eh     change       -0.5898974E-04 Eh
 * total energy  :  -325.3261336 Eh     change       -0.8705731E-05 Eh
 * total energy  :  -325.3261380 Eh     change       -0.4439145E-05 Eh
   *** GEOMETRY OPTIMIZATION CONVERGED AFTER 101 ITERATIONS ***

 final structure:
================
181
 xtb: 6.5.1 (b24c23e)
Fe          32.36668504319840       -0.02884950961302       -0.01718667688733
C           28.96846943782253        0.05469778229742       -0.08385029836404
C           29.61860548486560        0.95960769605756        0.72894409064385
C           28.94309110942038        1.91916234418622        1.54953861251422
C           29.89950391927906        2.55997809162007        2.26315590385876
C           31.15392603056887        1.98954143222777        1.87405236315803
N           30.97596263335606        1.03208849150434        0.91921658191731
C           32.37529333028821        2.34668798072260        2.45066067535607
C           32.37661963733286        3.32163398905781        3.47135250059682
C           32.37243987224263        4.16808374800808        4.34091786850000
C           32.36559530857951        5.15766011063199        5.35047862462788
C           33.55597652435387        5.61753053303420        5.92564219570363
C           33.49343748989299        6.59079473050612        6.90695477297092
N           32.34970906528849        7.11708056696118        7.33758019222336
C           31.21368345943005        6.68476356451961        6.79623910923795
C           31.16693081624548        5.71671976748333        5.80895913760707
C           33.59206570135751        1.78721303772153        2.05928495412665
C           34.84586142160566        2.13055060788991        2.65487739922545
C           35.80019500096272        1.45908155775447        1.96482878409171
N           33.77107231710183        0.90195534574593        1.03093509831114
C           35.12223920001409        0.71155788984476        0.95240863952365
C           35.78487827695770       -0.03180983069863       -0.02792362434042
C           35.11577396835928       -0.77330533743958       -1.00607932018391
C           35.78880800521007       -1.55324836296240       -1.99734215847807
C           34.82973425754710       -2.23164731329912       -2.67361852853529
C           33.57756195768491       -1.85576960550871       -2.09499588240385
N           33.76192838728209       -0.94042883194618       -1.09414508792587
C           32.35520213042849       -2.40389664826606       -2.48510219538105
C           32.35348884262371       -3.41343940454427       -3.47157809090797
C           32.35550232489725       -4.29213010605497       -4.30856859123650
C           32.35740963840677       -5.32044830543999       -5.27867650983994
C           33.55492359651669       -5.81795219263032       -5.80592136941859
C           33.50285685417786       -6.82930902157253       -6.74850584668380
N           32.36273228275027       -7.35836442072512       -7.18527591095967
C           31.22004224460425       -6.89001070035975       -6.68990776841256
C           31.16265134302616       -5.88219698520829       -5.74378500975952
C           31.13324344800786       -1.99757893127736       -1.94388397891701
C           29.87021012799247       -2.53513215491686       -2.35114753288230
C           28.91845679987411       -1.83735480037027       -1.68615115644974
C           29.60599112683334       -0.88187002472513       -0.87086426556362
N           30.96377546902690       -1.00199478481010       -1.02722040145683
H           27.88450311017078        0.07506975647327       -0.09857800941929
H           27.87443041367696        2.06249127335775        1.56900256305420
H           29.78453370762895        3.34386242345492        2.99456856150816
H           34.50935658398406        5.21617717037967        5.60392653422411
H           34.40122413729996        6.96697785372645        7.36981075945835
H           30.29920438680126        7.13541805018759        7.17105617078129
H           30.21945924488406        5.39373558840512        5.39477438805172
H           34.96432582970840        2.80307946104187        3.48919257817841
H           36.86838484648229        1.46416502709226        2.11081688997931
H           36.85740960553015       -1.57759504320860       -2.13766823151980
H           34.94436273953462       -2.92870149933036       -3.48807498694572
H           34.50564134926484       -5.41579975840913       -5.47733998929407
H           34.41632669679335       -7.23536893514855       -7.17339163574077
H           30.30884040752902       -7.34408459773842       -7.06854445252256
H           30.20994152540754       -5.53086686101509       -5.36636269977021
H           29.74708402912050       -3.33658077075078       -3.06192926585699
H           27.84624912196836       -1.94363397255334       -1.73125059480863
Fe          59.16499882012803       -0.12769290145057       -0.06592698444655
C           62.55955454736094       -0.15638185886261       -0.15706384452961
C           61.89508476165136       -1.30859963590899       -0.52337043573899
C           62.55188151923286       -2.50659424591850       -0.95226615641322
C           61.58489173138976       -3.44132793254983       -1.11561349199167
C           60.34316839424424       -2.80958715524770       -0.78557498688569
N           60.53841965152446       -1.50225629132931       -0.45166216986778
C           59.11926052380280       -3.48313051726522       -0.74310203806953
C           59.09729889543665       -4.86139955005818       -1.04581272670666
C           59.07511295653961       -6.04258378447078       -1.32340685920561
C           59.04751062392899       -7.41572131932488       -1.65839467500826
C           57.84951918804628       -8.13979820036362       -1.65374528244808
C           57.87516470177030       -9.47941116569443       -1.99854554956927
N           58.99001014714116      -10.12192656363559       -2.33732100282600
C           60.13312845993132       -9.44095733673395       -2.34300764926875
C           60.21579826627003       -8.09949274389566       -2.01475427125965
C           57.91625849781669       -2.84961386808963       -0.43036581817778
C           56.65868130613176       -3.52696521182826       -0.36879232098177
C           55.71479843626938       -2.57502329218970       -0.16583431340860
N           57.75076759120630       -1.50502655667130       -0.23232442001209
C           56.40313376925452       -1.32364699863543       -0.10426971469505
C           55.75100417066591       -0.08732257019065       -0.03309112461552
C           56.43353066460207        1.13031438588491        0.05303763466983
C           55.77629955695639        2.39578471498888        0.15326744774208
C           56.74453063215282        3.31835426842857        0.37679968624484
C           57.98652878722146        2.61040331328233        0.40238185426327
N           57.78637862782660        1.27555487313648        0.17581558842377
C           59.21326851492422        3.21149345505731        0.68661571463232
C           59.23472369275638        4.58457637088719        1.01193010156338
C           59.25625816348365        5.76303189148901        1.30094826404646
C           59.28632110932423        7.13539457153430        1.63879905451330
C           58.11336415612310        7.89753303912168        1.69005380505206
C           58.19886820125400        9.23642724468107        2.02801689547212
N           59.34896360609692        9.84347784449229        2.30956153612117
C           60.46849806097897        9.12588162503177        2.26296490788446
C           60.49186959769727        7.78171659193790        1.93634123782018
C           60.42541856695772        2.51658442378664        0.65195886034295
C           61.69481709520285        3.12519008638313        0.91378020250996
C           62.63613709483023        2.18308464455032        0.66546564579919
C           61.93608702818913        1.00175934983721        0.25951856777055
N           60.58046677545860        1.21314441904374        0.28259131428532
H           63.64320227266455       -0.16331852534730       -0.19317075569276
H           63.61629201843333       -2.60245856199652       -1.09644192564497
H           61.68528809130193       -4.47004730405253       -1.42278516214128
H           56.91871651339905       -7.65505079082334       -1.38510323033301
H           56.96058378382171      -10.06534958321074       -2.00473073218311
H           61.02327314970128       -9.99618943900018       -2.62438285617485
H           61.16766113658784       -7.58263562954284       -2.03338095291293
H           56.52959937834789       -4.59185279023031       -0.47719478141234
H           54.64733534800614       -2.69368198955889       -0.07275099417421
H           54.71090293206289        2.54102649134043        0.07437531624478
H           56.64245025850068        4.38253243393773        0.51661828233279
H           57.15558334548906        7.44260662000672        1.46823374079801
H           57.30510103594190        9.85181112600383        2.07583239911885
H           61.38871034161075        9.65275546966093        2.49840958495460
H           61.42641511519470        7.23443812548952        1.91044756369946
H           61.82957727436803        4.14591142696899        1.23415612015037
H           63.70901130339985        2.26307005494197        0.73955142944390
C           38.41207784174304       -0.08902592904181       -0.04300080883640
C           37.19079045173952       -0.05009968994800       -0.02812806695790
C           39.76016597148048       -0.15244676107298       -0.07977250663200
C           40.97848314048692       -0.23230614117295       -0.13451813995540
C           51.77876361088479       -0.14140994043308       -0.13397307880705
C           50.55925049938940       -0.21230517859159       -0.19294792425556
C           53.12526500745128       -0.09518970733672       -0.08320217581702
C           54.34755243881298       -0.07692493040240       -0.05052861051781
Fe          45.76902217737936       -0.52829326698246       -0.39049495918500
C           42.37623066561520       -0.34278677978850       -0.22081852350008
C           43.01105582008108        0.12840865680335       -1.37677776592477
C           42.31618728273082        0.64553382045103       -2.51344372258385
C           43.26324968767033        1.03685259335890       -3.40259002281506
C           44.52931702558740        0.78339285717545       -2.78885324566487
N           44.36117094346979        0.19052031793644       -1.56726945562412
C           45.74593602663604        1.23785363582045       -3.30308236397293
C           45.74798209275343        1.90538165456089       -4.54572444167431
C           45.75496555790522        2.46039804263456       -5.62502970248632
C           45.76352767229737        3.10234731892078       -6.88442796052431
C           46.95285759087096        3.57968487136110       -7.44742392881047
C           46.90725148768234        4.19632428030163       -8.68515684630775
N           45.78101069756621        4.36126492225735       -9.37408330386887
C           44.64607161202185        3.91117372063641       -8.84528850111870
C           44.58315431246724        3.28042626071357       -7.61547921338644
C           46.95449328373774        1.11188574445570       -2.61184724136331
C           48.17647958094930        1.73340368267277       -3.01519550632041
C           49.12096307585091        1.35056846861467       -2.11931714231685
N           47.14319354819325        0.36546405812447       -1.48330943195104
C           48.47470350816001        0.47202573813186       -1.19513527449338
C           49.16315761623311       -0.32238354401847       -0.27065149640807
C           48.52608072832421       -1.29109470469024        0.51654682969860
C           49.22029527057493       -2.23111722634156        1.33914850694445
C           48.27259780362636       -2.96472686170398        1.97505251226495
C           47.00702726212437       -2.44630972451736        1.55849907456035
N           47.17644142906829       -1.45024587420642        0.63507840734232
C           45.79135569785964       -2.80029838124740        2.14705573005219
C           45.78987704139049       -3.79145656153949        3.15080791379435
C           45.78557972992773       -4.65723958794145        4.00133280191155
C           45.78504120637963       -5.66812270753800        4.98949986679969
C           44.60076158940755       -6.06612891192724        5.62069736606620
C           44.65513833415730       -7.06272673110451        6.57890014361963
N           45.78532690077466       -7.66772315621948        6.93519675761576
C           46.91544117284635       -7.29463107556809        6.34031449433229
C           46.96955138819136       -6.30943746444159        5.37040442735336
C           44.58359319099068       -2.17189863369673        1.82722177980461
C           43.36256606994737       -2.37344803633036        2.54184161773483
C           42.41869322259344       -1.62587479245804        1.91636727225160
C           43.06421467217753       -0.99898836453306        0.80541419133483
N           44.39563724269561       -1.30960327012164        0.78498677321363
H           41.24330122321140        0.69315725124762       -2.60776007731478
H           43.13087873769613        1.48093536666252       -4.37604803355483
H           47.89205424938604        3.46546688806975       -6.91985855402753
H           47.81437636568101        4.57558010530922       -9.14667976553327
H           43.74642704128751        4.06243727060059       -9.43474808237997
H           43.63762702392650        2.92807211738270       -7.22140553768670
H           48.28239758398689        2.38225388352700       -3.86972509421322
H           50.16686639648855        1.61047371148183       -2.09038182976951
H           50.29316091697210       -2.31137447824813        1.40833864633319
H           48.40430942800799       -3.76779432188256        2.68222691503563
H           43.65862548428905       -5.59943539517921        5.35989749373252
H           43.75206795645489       -7.39227386997314        7.08443106013155
H           47.81859474174293       -7.80917747738677        6.65539306328469
H           47.91159285097832       -6.03616369936619        4.91065243985059
H           43.25693428645162       -3.00168468194076        3.41167240846014
H           41.37352572015209       -1.51959608884608        2.15846843575458

          :  Hamiltonian                  GFN1-xTB          :
         :: total energy            -325.326138022955 Eh    ::
         :: gradient norm              0.000418009461 Eh/a0 ::
         :: HOMO-LUMO gap              0.057596959224 eV    ::
         :: SCC energy              -330.920725793003 Eh    ::
         :: repulsion energy           5.748989255906 Eh    ::

    * Orbital Energies and Occupations

         #    Occupation            Energy/Eh            Energy/eV
      -------------------------------------------------------------
         1        2.0000           -0.7809151             -21.2498
       ...           ...                  ...                  ...
       290        2.0000           -0.4041392             -10.9972
       291        1.9999           -0.4013682             -10.9218
       292        1.9936           -0.3971866             -10.8080
       293        1.9926           -0.3970518             -10.8043
       294        1.9919           -0.3969611             -10.8019
       295        1.9820           -0.3962007             -10.7812
       296        1.9666           -0.3956028             -10.7649
       297        1.9625           -0.3954908             -10.7619
       298        1.9500           -0.3952129             -10.7543
       299        1.9430           -0.3950833             -10.7508
       300        1.9410           -0.3950509             -10.7499
       301        1.9329           -0.3949237             -10.7464
       302        1.3517           -0.3924295             -10.6785 (HOMO)
       303        0.3669           -0.3903128             -10.6210 (LUMO)
       304        0.3401           -0.3902252             -10.6186
       305        0.2853           -0.3900275             -10.6132
       306                         -0.3495058              -9.5105
       307                         -0.3479135              -9.4672
       308                         -0.3449644              -9.3870
       309                         -0.3441828              -9.3657
       310                         -0.3405031              -9.2656
       311                         -0.3366567              -9.1609
       312                         -0.3232173              -8.7952
       313                         -0.3161877              -8.6039
       ...                                ...                  ...
       639                          1.5023852              40.8820
      -------------------------------------------------------------
                  HL-Gap            0.0021166 Eh            0.0576 eV

Wiberg/Mayer (AO) data.
largest (>0.10) Wiberg bond orders for each atom

     #   Z sym  total        # sym  WBO       # sym  WBO       # sym  WBO
 ---------------------------------------------------------------------------
     1  26 Fe   3.124 --     7 N    0.668    41 N    0.664    27 N    0.662
                            20 N    0.658
     2   6 C    3.929 --     3 C    1.367    40 C    1.364    42 H    0.970
     3   6 C    3.916 --     2 C    1.367     7 N    1.201     4 C    1.174
     4   6 C    3.958 --     5 C    1.645     3 C    1.174    43 H    0.975
     5   6 C    3.960 --     4 C    1.645     6 C    1.181    44 H    0.973
     6   6 C    3.912 --     8 C    1.268     7 N    1.242     5 C    1.181
     7   7 N    3.383 --     6 C    1.242     3 C    1.201     1 Fe   0.668
     8   6 C    3.928 --    17 C    1.279     6 C    1.268     9 C    1.160
     9   6 C    3.956 --    10 C    2.623     8 C    1.160
    10   6 C    3.929 --     9 C    2.623    11 C    1.141
    11   6 C    3.987 --    12 C    1.350    16 C    1.350    10 C    1.141
    12   6 C    3.973 --    13 C    1.457    11 C    1.350    45 H    0.974
                            15 C    0.104
    13   6 C    3.972 --    12 C    1.457    14 N    1.407    46 H    0.972
                            16 C    0.104
    14   7 N    2.994 --    13 C    1.407    15 C    1.407
    15   6 C    3.973 --    16 C    1.457    14 N    1.407    47 H    0.972
                            12 C    0.104
    16   6 C    3.973 --    15 C    1.457    11 C    1.350    48 H    0.974
                            13 C    0.104
    17   6 C    3.907 --     8 C    1.279    20 N    1.222    18 C    1.188
    18   6 C    3.958 --    19 C    1.633    17 C    1.188    49 H    0.974
    19   6 C    3.959 --    18 C    1.633    21 C    1.189    50 H    0.973
    20   7 N    3.381 --    21 C    1.229    17 C    1.222     1 Fe   0.658
    21   6 C    3.899 --    22 C    1.264    20 N    1.229    19 C    1.189
    22   6 C    3.929 --    21 C    1.264    23 C    1.264   118 C    1.180
    23   6 C    3.898 --    22 C    1.264    27 N    1.229    24 C    1.189
    24   6 C    3.959 --    25 C    1.633    23 C    1.189    51 H    0.973
    25   6 C    3.958 --    24 C    1.633    26 C    1.188    52 H    0.973
    26   6 C    3.907 --    28 C    1.279    27 N    1.222    25 C    1.188
    27   7 N    3.383 --    23 C    1.229    26 C    1.222     1 Fe   0.662
    28   6 C    3.928 --    26 C    1.279    37 C    1.268    29 C    1.160
    29   6 C    3.956 --    30 C    2.623    28 C    1.160
    30   6 C    3.929 --    29 C    2.623    31 C    1.141
    31   6 C    3.987 --    36 C    1.350    32 C    1.350    30 C    1.141
    32   6 C    3.973 --    33 C    1.457    31 C    1.350    53 H    0.974
                            35 C    0.104
    33   6 C    3.973 --    32 C    1.457    34 N    1.407    54 H    0.972
                            36 C    0.104
    34   7 N    2.994 --    35 C    1.407    33 C    1.407
    35   6 C    3.973 --    36 C    1.457    34 N    1.407    55 H    0.972
                            32 C    0.104
    36   6 C    3.973 --    35 C    1.457    31 C    1.350    56 H    0.974
                            33 C    0.104
    37   6 C    3.912 --    28 C    1.268    41 N    1.241    38 C    1.182
    38   6 C    3.960 --    39 C    1.645    37 C    1.182    57 H    0.973
    39   6 C    3.958 --    38 C    1.645    40 C    1.175    58 H    0.975
    40   6 C    3.916 --     2 C    1.364    41 N    1.202    39 C    1.175
    41   7 N    3.382 --    37 C    1.241    40 C    1.202     1 Fe   0.664
    42   1 H    1.000 --     2 C    0.970
    43   1 H    0.997 --     4 C    0.975
    44   1 H    1.003 --     5 C    0.973
    45   1 H    1.002 --    12 C    0.974
    46   1 H    1.013 --    13 C    0.972
    47   1 H    1.013 --    15 C    0.972
    48   1 H    1.002 --    16 C    0.974
    49   1 H    1.002 --    18 C    0.974
    50   1 H    1.001 --    19 C    0.973
    51   1 H    1.001 --    24 C    0.973
    52   1 H    1.002 --    25 C    0.973
    53   1 H    1.002 --    32 C    0.974
    54   1 H    1.013 --    33 C    0.972
    55   1 H    1.013 --    35 C    0.972
    56   1 H    1.002 --    36 C    0.974
    57   1 H    1.002 --    38 C    0.973
    58   1 H    0.997 --    39 C    0.975
    59  26 Fe   3.086 --    99 N    0.662    65 N    0.660    78 N    0.656
                            85 N    0.654
    60   6 C    3.921 --    61 C    1.365    98 C    1.365   100 H    0.970
    61   6 C    3.916 --    60 C    1.365    65 N    1.201    62 C    1.175
    62   6 C    3.958 --    63 C    1.645    61 C    1.175   101 H    0.975
    63   6 C    3.961 --    62 C    1.645    64 C    1.182   102 H    0.974
    64   6 C    3.912 --    66 C    1.265    65 N    1.243    63 C    1.182
    65   7 N    3.378 --    64 C    1.243    61 C    1.201    59 Fe   0.660
    66   6 C    3.920 --    75 C    1.281    64 C    1.265    67 C    1.160
    67   6 C    3.956 --    68 C    2.622    66 C    1.160
    68   6 C    3.928 --    67 C    2.622    69 C    1.141
    69   6 C    3.987 --    74 C    1.350    70 C    1.350    68 C    1.141
    70   6 C    3.973 --    71 C    1.457    69 C    1.350   103 H    0.974
                            73 C    0.104
    71   6 C    3.972 --    70 C    1.457    72 N    1.407   104 H    0.972
                            74 C    0.104
    72   7 N    2.994 --    73 C    1.407    71 C    1.407
    73   6 C    3.972 --    74 C    1.457    72 N    1.407   105 H    0.972
                            70 C    0.104
    74   6 C    3.972 --    73 C    1.457    69 C    1.350   106 H    0.974
                            71 C    0.104
    75   6 C    3.907 --    66 C    1.281    78 N    1.219    76 C    1.188
    76   6 C    3.957 --    77 C    1.633    75 C    1.188   107 H    0.974
    77   6 C    3.959 --    76 C    1.633    79 C    1.190   108 H    0.973
    78   7 N    3.377 --    79 C    1.233    75 C    1.219    59 Fe   0.656
    79   6 C    3.897 --    80 C    1.256    78 N    1.233    77 C    1.190
    80   6 C    3.919 --    81 C    1.260    79 C    1.256   124 C    1.190
    81   6 C    3.897 --    80 C    1.260    85 N    1.232    82 C    1.189
    82   6 C    3.959 --    83 C    1.633    81 C    1.189   109 H    0.973
    83   6 C    3.957 --    82 C    1.633    84 C    1.188   110 H    0.974
    84   6 C    3.907 --    86 C    1.279    85 N    1.221    83 C    1.188
    85   7 N    3.377 --    81 C    1.232    84 C    1.221    59 Fe   0.654
    86   6 C    3.920 --    84 C    1.279    95 C    1.266    87 C    1.160
    87   6 C    3.956 --    88 C    2.622    86 C    1.160
    88   6 C    3.928 --    87 C    2.622    89 C    1.141
    89   6 C    3.987 --    90 C    1.350    94 C    1.350    88 C    1.141
    90   6 C    3.973 --    91 C    1.456    89 C    1.350   111 H    0.974
                            93 C    0.104
    91   6 C    3.972 --    90 C    1.456    92 N    1.407   112 H    0.972
                            94 C    0.104
    92   7 N    2.994 --    91 C    1.407    93 C    1.407
    93   6 C    3.972 --    94 C    1.457    92 N    1.407   113 H    0.972
                            90 C    0.104
    94   6 C    3.972 --    93 C    1.457    89 C    1.350   114 H    0.974
                            91 C    0.104
    95   6 C    3.912 --    86 C    1.266    99 N    1.242    96 C    1.182
    96   6 C    3.961 --    97 C    1.645    95 C    1.182   115 H    0.974
    97   6 C    3.958 --    96 C    1.645    98 C    1.175   116 H    0.975
    98   6 C    3.916 --    60 C    1.365    99 N    1.201    97 C    1.175
    99   7 N    3.378 --    95 C    1.242    98 C    1.201    59 Fe   0.662
   100   1 H    1.000 --    60 C    0.970
   101   1 H    0.997 --    62 C    0.975
   102   1 H    1.002 --    63 C    0.974
   103   1 H    1.002 --    70 C    0.974
   104   1 H    1.013 --    71 C    0.972
   105   1 H    1.013 --    73 C    0.972
   106   1 H    1.002 --    74 C    0.974
   107   1 H    1.002 --    76 C    0.974
   108   1 H    1.002 --    77 C    0.973
   109   1 H    1.001 --    82 C    0.973
   110   1 H    1.002 --    83 C    0.974
   111   1 H    1.002 --    90 C    0.974
   112   1 H    1.013 --    91 C    0.972
   113   1 H    1.013 --    93 C    0.972
   114   1 H    1.002 --    94 C    0.974
   115   1 H    1.002 --    96 C    0.974
   116   1 H    0.997 --    97 C    0.975
   117   6 C    3.927 --   118 C    2.473   119 C    1.305
   118   6 C    3.910 --   117 C    2.473    22 C    1.180   120 C    0.195
   119   6 C    3.922 --   120 C    2.471   117 C    1.305
   120   6 C    3.914 --   119 C    2.471   126 C    1.186   118 C    0.195
   121   6 C    3.921 --   122 C    2.459   123 C    1.315
   122   6 C    3.914 --   121 C    2.459   146 C    1.195   124 C    0.195
   123   6 C    3.925 --   124 C    2.461   121 C    1.315
   124   6 C    3.910 --   123 C    2.461    80 C    1.190   122 C    0.195
   125  26 Fe   3.097 --   131 N    0.653   151 N    0.653   165 N    0.650
                           144 N    0.649
   126   6 C    3.914 --   164 C    1.263   127 C    1.255   120 C    1.186
   127   6 C    3.899 --   126 C    1.255   131 N    1.235   128 C    1.192
   128   6 C    3.959 --   129 C    1.631   127 C    1.192   166 H    0.974
   129   6 C    3.959 --   128 C    1.631   130 C    1.189   167 H    0.974
   130   6 C    3.906 --   132 C    1.274   131 N    1.221   129 C    1.189
   131   7 N    3.372 --   127 C    1.235   130 C    1.221   125 Fe   0.653
   132   6 C    3.916 --   130 C    1.274   141 C    1.267   133 C    1.163
   133   6 C    3.956 --   134 C    2.620   132 C    1.163
   134   6 C    3.926 --   133 C    2.620   135 C    1.142
   135   6 C    3.987 --   136 C    1.350   140 C    1.350   134 C    1.142
   136   6 C    3.972 --   137 C    1.456   135 C    1.350   168 H    0.974
                           139 C    0.104
   137   6 C    3.972 --   136 C    1.456   138 N    1.408   169 H    0.972
                           140 C    0.104
   138   7 N    2.994 --   137 C    1.408   139 C    1.408
   139   6 C    3.972 --   140 C    1.456   138 N    1.408   170 H    0.972
                           136 C    0.104
   140   6 C    3.972 --   139 C    1.456   135 C    1.350   171 H    0.974
                           137 C    0.104
   141   6 C    3.905 --   132 C    1.267   144 N    1.228   142 C    1.191
   142   6 C    3.960 --   143 C    1.630   141 C    1.191   172 H    0.974
   143   6 C    3.959 --   142 C    1.630   145 C    1.190   173 H    0.974
   144   7 N    3.370 --   145 C    1.229   141 C    1.228   125 Fe   0.649
   145   6 C    3.898 --   146 C    1.258   144 N    1.229   143 C    1.190
   146   6 C    3.912 --   145 C    1.258   147 C    1.250   122 C    1.195
   147   6 C    3.898 --   146 C    1.250   151 N    1.239   148 C    1.192
   148   6 C    3.959 --   149 C    1.630   147 C    1.192   174 H    0.974
   149   6 C    3.958 --   148 C    1.630   150 C    1.189   175 H    0.974
   150   6 C    3.906 --   152 C    1.277   151 N    1.218   149 C    1.189
   151   7 N    3.372 --   147 C    1.239   150 C    1.218   125 Fe   0.653
   152   6 C    3.916 --   150 C    1.277   161 C    1.264   153 C    1.163
   153   6 C    3.956 --   154 C    2.620   152 C    1.163
   154   6 C    3.926 --   153 C    2.620   155 C    1.142
   155   6 C    3.987 --   156 C    1.350   160 C    1.350   154 C    1.142
   156   6 C    3.972 --   157 C    1.456   155 C    1.350   176 H    0.974
                           159 C    0.104
   157   6 C    3.972 --   156 C    1.456   158 N    1.408   177 H    0.972
                           160 C    0.104
   158   7 N    2.994 --   157 C    1.408   159 C    1.408
   159   6 C    3.972 --   160 C    1.456   158 N    1.408   178 H    0.972
                           156 C    0.104
   160   6 C    3.972 --   159 C    1.456   155 C    1.350   179 H    0.974
                           157 C    0.104
   161   6 C    3.905 --   152 C    1.264   165 N    1.231   162 C    1.191
   162   6 C    3.960 --   163 C    1.630   161 C    1.191   180 H    0.974
   163   6 C    3.959 --   162 C    1.630   164 C    1.190   181 H    0.974
   164   6 C    3.899 --   126 C    1.263   165 N    1.225   163 C    1.190
   165   7 N    3.370 --   161 C    1.231   164 C    1.225   125 Fe   0.650
   166   1 H    1.001 --   128 C    0.974
   167   1 H    1.002 --   129 C    0.974
   168   1 H    1.002 --   136 C    0.974
   169   1 H    1.013 --   137 C    0.972
   170   1 H    1.013 --   139 C    0.972
   171   1 H    1.002 --   140 C    0.974
   172   1 H    1.002 --   142 C    0.974
   173   1 H    1.001 --   143 C    0.974
   174   1 H    1.001 --   148 C    0.974
   175   1 H    1.002 --   149 C    0.974
   176   1 H    1.002 --   156 C    0.974
   177   1 H    1.013 --   157 C    0.972
   178   1 H    1.013 --   159 C    0.972
   179   1 H    1.002 --   160 C    0.974
   180   1 H    1.002 --   162 C    0.974
   181   1 H    1.001 --   163 C    0.974
 ---------------------------------------------------------------------------

           -------------------------------------------------
          | TOTAL ENERGY             -325.326138022955 Eh   |
          | GRADIENT NORM               0.000418009461 Eh/α |
          | HOMO-LUMO GAP               0.057596959224 eV   |
           -------------------------------------------------

 * finished run on 2022/07/29 at 17:17:25.284
