   * xtb version 6.5.1 (b24c23e) compiled by 'conda@728c89f4b128' on 2022-07-12
          program call               : xtb Co_Ph2OMe_C8_3.xyz --gfn 1 --opt -T 48

   ID    Z sym.   atoms
    1   27 Co     1, 73, 161
    2    6 C      2-6, 8-11, 13-21, 23-27, 29-33, 36, 37, 39-43, 45, 74-78,
                  80-83, 85-93, 95-99, 101-105, 108, 109, 111-115, 117,
                  145-160, 162-166, 168-171, 173-181, 183-187, 189-193, 196,
                  197, 199-203, 205
    3    7 N      7, 12, 34, 35, 79, 84, 106, 107, 167, 172, 194, 195
    4    8 O      22, 28, 38, 44, 94, 100, 110, 116, 182, 188, 198, 204
    5    1 H      46-72, 118-144, 206-231

          :  Hamiltonian                  GFN1-xTB          :
 * total energy  :  -409.1071551 Eh     change        0.2223544E-08 Eh
 * total energy  :  -409.5429104 Eh     change       -0.4357553E+00 Eh
 * total energy  :  -409.6895602 Eh     change       -0.1466498E+00 Eh
 * total energy  :  -409.7676131 Eh     change       -0.7805285E-01 Eh
 * total energy  :  -409.8301178 Eh     change       -0.6250476E-01 Eh
 * total energy  :  -409.8957497 Eh     change       -0.6563191E-01 Eh
 * total energy  :  -409.9610238 Eh     change       -0.6527407E-01 Eh
 * total energy  :  -410.0036283 Eh     change       -0.4260455E-01 Eh
 * total energy  :  -410.0324784 Eh     change       -0.2885004E-01 Eh
 * total energy  :  -410.0529822 Eh     change       -0.2050387E-01 Eh
 * total energy  :  -410.1666165 Eh     change        0.9591008E-04 Eh
 * total energy  :  -410.1667050 Eh     change       -0.8853029E-04 Eh
 * total energy  :  -410.1666968 Eh     change        0.8229796E-05 Eh
 * total energy  :  -410.1667424 Eh     change       -0.4558049E-04 Eh
 * total energy  :  -410.1665612 Eh     change        0.1811392E-03 Eh
 * total energy  :  -410.1667320 Eh     change       -0.1707811E-03 Eh
 * total energy  :  -410.1667520 Eh     change       -0.2001066E-04 Eh
 * total energy  :  -410.1667612 Eh     change       -0.9143347E-05 Eh
 * total energy  :  -410.1667660 Eh     change       -0.4828628E-05 Eh
   *** GEOMETRY OPTIMIZATION CONVERGED AFTER 104 ITERATIONS ***

 final structure:
================
231
 xtb: 6.5.1 (b24c23e)
Co          26.09747281863380       -0.02762314326897        0.04125341525218
C           22.72616939808937       -0.11488926561758        0.19481999598189
C           23.41165828453702        0.55958498924338        1.18239989439924
C           22.77861851900386        1.21994799793063        2.28362797738323
C           23.74217260458826        1.92963084309758        2.91638222654154
C           24.96342438267225        1.69989949285861        2.20273540447043
N           24.75880676773672        0.81975374536550        1.17055322429784
C           26.13792535550713        2.40123464584731        2.42861639898077
C           27.29707748316908        2.14053958031864        1.71856563962812
C           28.53779403511750        2.81981538331149        1.93929497272610
C           29.48372720884321        2.14184497193071        1.24655532926234
N           27.47413569258257        1.08907090580682        0.84668553521179
C           28.81781508889660        1.05488114531816        0.60026659361596
C           29.48904606773833        0.03580468589841       -0.07945678310350
C           28.80368122960277       -0.98441375810067       -0.74210849855297
C           29.45638740036476       -2.04383437094085       -1.44528861484283
C           28.49003121739025       -2.72129167357421       -2.10985001078826
C           27.24962159300622       -2.07230128472327       -1.81135737150578
C           26.04487261085967       -2.38630674045708       -2.41825554894439
C           26.02163252700594       -3.42615294627990       -3.48212817574957
C           26.64371947244916       -3.19269858965281       -4.71610883502253
O           27.23843924998201       -1.97986947187340       -4.86145822262992
C           27.89944893520418       -1.64491995439094       -6.06481283105191
C           26.61911170815535       -4.16725338775977       -5.71335048977325
C           25.97821537181114       -5.37272578234033       -5.47097761775203
C           25.35959042223012       -5.62783472992402       -4.25646782080380
C           25.37931677254787       -4.65203358758428       -3.26052511062813
O           24.81063495544181       -4.81225770846383       -2.03671081572115
C           24.13891860092231       -6.01168969094720       -1.70949544033702
C           24.85744258329893       -1.77118938974130       -2.05190656899445
C           23.58881164117690       -2.05031729872757       -2.65754731840770
C           22.65160717662881       -1.41764636015408       -1.91383673194113
C           23.34968243983733       -0.74300697943934       -0.86142255427507
N           24.70511801724206       -0.91610036505021       -0.98975989238460
N           27.45019438375629       -1.03765992970001       -0.92619795186695
C           26.15510638509076        3.45799297475222        3.47776223575917
C           26.16176883683609        3.10460250191276        4.83289324506814
O           26.15715020841036        1.77133487018623        5.09681188042231
C           26.19356416745405        1.30555727196357        6.43057922543391
C           26.17882864858870        4.09172276758197        5.81774498158050
C           26.18424344248650        5.42648142879084        5.44149952068638
C           26.17609277807983        5.79912620927562        4.10579840878974
C           26.16424131774673        4.81190383713427        3.12070175856891
O           26.15355855377466        5.07313849338540        1.78704102871612
C           26.13275986949875        6.40676034829007        1.31969354020867
H           21.64422393252597       -0.14734833828476        0.24823979737177
H           21.72733816979906        1.14979691856268        2.51469316942684
H           23.64838541200705        2.56706459699266        3.78065533480112
H           28.65749754704447        3.69108834821238        2.56246181049086
H           30.54183734581702        2.33776301592671        1.17800245657953
H           30.51963661211439       -2.22267716851644       -1.43117616508892
H           28.59402044079360       -3.57850897859520       -2.75506980356926
H           27.20879280997192       -1.64703295252582       -6.91681991326466
H           28.29249225215813       -0.63630446609233       -5.92445100257321
H           28.73089816131484       -2.32998197395767       -6.27048309540126
H           27.09225645728220       -3.99513417800699       -6.67080556377486
H           25.96071584733768       -6.13095669372189       -6.24615110240348
H           24.86958939153655       -6.57847311633991       -4.09394195476632
H           23.77424991828392       -5.88633358006605       -0.68827330829528
H           23.28674032568549       -6.18995512753864       -2.37658688376501
H           24.81523647151402       -6.87430811076817       -1.74697819912299
H           23.44959928283187       -2.66746327779956       -3.53046345696974
H           21.58074448078218       -1.40361020921322       -2.04260787457511
H           26.19489195294060        0.21557973759512        6.37162456062565
H           25.31290505730939        1.63442969572035        6.99565488622853
H           27.10136009671727        1.63942880723956        6.94762903318634
H           26.18686932070078        3.83047414301162        6.86747205292374
H           26.19512186889321        6.19431129088240        6.20730849799546
H           26.17981408660871        6.84828125852181        3.84216534133572
H           27.02738605272602        6.95742228066507        1.63496049175910
H           26.11455454376588        6.34654142303167        0.22996174067916
H           25.23870259579474        6.93943882825101        1.66596454825794
Co          63.15524006136450       -0.06486446882647        0.00072902353998
C           66.51907755146956       -0.28300337008856        0.10975088994849
C           65.83091977081659       -1.15277606944640       -0.70921953460000
C           66.45913051710077       -2.15382720660412       -1.51696323547862
C           65.49916170862046       -2.65547427656213       -2.32908324946912
C           64.28436152025381       -1.96370665178311       -2.01351758419106
N           64.48862065170390       -1.08053445377878       -0.98442450920715
C           63.11946443843860       -2.05463083123230       -2.76260807311397
C           61.96816021002195       -1.36842611577427       -2.41471441281609
C           60.73560976360994       -1.45317204579871       -3.13833149137855
C           59.78946755637509       -0.86017085877312       -2.37148332605361
N           61.78572893716792       -0.67418038268163       -1.23886391292703
C           60.44690708960476       -0.41125054090886       -1.18479211213521
C           59.76836656331026        0.09528629822443       -0.07200501338915
C           60.44861500145371        0.57095050311201        1.05254222823625
C           59.79122135221394        1.09809134312082        2.20700943920140
C           60.75515674403083        1.64561413123710        2.98544364822934
C           61.99833569760825        1.45120760008775        2.30294321316104
C           63.20242669782484        2.00284058477299        2.70852581158850
C           63.22058039115606        2.90357696155866        3.89191207530972
C           62.58127767578332        4.15020832910791        3.84288652883373
O           61.97876940454932        4.46316773038929        2.66624495463372
C           61.29171124328993        5.68905185077259        2.51564184284325
C           62.59858655768330        4.99541301743400        4.95191156558050
C           63.24900010241183        4.58910904618046        6.10709454050828
C           63.88453239434757        3.35889810120874        6.18057187100663
C           63.87242366298080        2.51507042082442        5.07052160180829
O           64.45657195366671        1.28829599491213        5.05029832807863
C           65.14259308748272        0.80164696244161        6.18595440401335
C           64.39277605996639        1.72660523707798        2.05113554021646
C           65.66309061739753        2.27658626104826        2.42237704396518
C           66.60061678773297        1.62136816610230        1.69839429497856
C           65.90057118194137        0.68189486598203        0.87547996517868
N           64.54500836859181        0.79626881669980        1.05496807845511
N           61.80130824237651        0.73781983391071        1.14237525866921
C           63.10557778579778       -2.92578775075724       -3.96932895052110
C           63.13108711404248       -4.31990901889561       -3.83332969186530
O           63.16030606483933       -4.79049396563195       -2.55856574420598
C           63.17075560931083       -6.18152144433422       -2.30854467708930
C           63.11719158400402       -5.13835858047352       -4.96218322980459
C           63.08304680348068       -4.55877105392147       -6.22149584471789
C           63.05886345873905       -3.18141408620419       -6.38015669766018
C           63.06695151235679       -2.36265316939330       -5.25127747827607
O           63.04825597049931       -1.00460282393036       -5.30227539069190
C           63.02323120210366       -0.33546453574744       -6.54692143726764
H           67.59979025412068       -0.35595365361420        0.14652563707978
H           67.50542247708826       -2.41110022352769       -1.46649961270920
H           65.59322588744983       -3.41533123181855       -3.08770837939467
H           60.61933567775604       -1.92517468920945       -4.10017963725735
H           58.73620015710809       -0.74101449155147       -2.56925590974902
H           58.72705173751221        1.05882746050235        2.37621403969026
H           60.64738945015739        2.14769551993272        3.93317485329608
H           61.96582360213070        6.54542056271347        2.63826474211576
H           60.89210731632502        5.68989463932486        1.49986547498167
H           60.46290211128458        5.77492220999238        3.22875631112900
H           62.11235104307548        5.96126520680914        4.92231768964452
H           63.26049894283110        5.24590920324998        6.96996638362147
H           64.38139150846911        3.06634150410499        7.09584759306823
H           65.52169490568809       -0.18459624548347        5.91178502818111
H           65.98590553644999        1.44958871431936        6.45417912788988
H           64.47255330789795        0.70289500876632        7.04859805000036
H           65.80357168774269        3.05186957424712        3.15813753399056
H           67.67247501260154        1.74153656738358        1.71147239005798
H           63.19022115205354       -6.29460333399693       -1.22304042801814
H           64.06006748386605       -6.66015181969185       -2.73636533304880
H           62.27120094623155       -6.66751786103971       -2.70531741239880
H           63.13339594430472       -6.21589742560100       -4.86820133368383
H           63.07493945422146       -5.19524234490118       -7.09951423109217
H           63.03351531404528       -2.75703062378324       -7.37486574208845
H           62.12361836037527       -0.58821008228979       -7.12116007465019
H           63.01399820640556        0.73172344318298       -6.31779528310799
H           63.91240065884048       -0.56770924958263       -7.14551540740150
C           30.89287042839004        0.03777812257444       -0.09604350176277
C           32.11739828261887        0.03420464032178       -0.09929336977425
C           33.46035832231563        0.02654472453300       -0.09830593392620
C           34.69117066807332        0.01771160132823       -0.09087688897338
C           36.02917529318017        0.01157982509443       -0.08171812992685
C           37.26006152594611        0.00731832260520       -0.06880647713594
C           38.60241472858576       -0.00056720553471       -0.06042191078480
C           39.82723568015818       -0.00165210936892       -0.04969046444925
C           49.43526648690116        0.10069811055439       -0.02720907746699
C           50.66085444204764        0.12314249056619       -0.03555401494313
C           52.00135529455493        0.14438041965399       -0.04557943343885
C           53.23327074075571        0.15737476970628       -0.05802945664888
C           54.56930756682531        0.16325291897190       -0.07006323064939
C           55.80112123987038        0.15802062462178       -0.08255650265251
C           57.14200187593275        0.14590529384672       -0.08515540888899
C           58.36743076256858        0.12815373057602       -0.08374611663061
Co          44.63299511283674       -0.00789632724208       -0.03660498185670
C           41.22995347529652        0.00099910623369       -0.04482973049980
C           41.90748823902749       -0.24763692319010        1.15229364716993
C           41.24890838938669       -0.53841297432647        2.38671213420016
C           42.20540865845852       -0.53251909272154        3.34679126589069
C           43.44248317941958       -0.23509492013479        2.69255168231441
N           43.25371339189877       -0.10990104811780        1.33614119310847
C           44.62390426055163        0.03754860374366        3.36133854281184
C           45.80651122488671        0.31154086254774        2.69728635327034
C           47.03873240841691        0.61966991764638        3.35611342743566
C           47.99849479364487        0.63419541731607        2.39971902184544
N           46.00086696932046        0.19343745797863        1.34004315143562
C           47.34729683190447        0.33460789984335        1.16326215728413
C           48.03487361695439        0.07715170796245       -0.02691990740269
C           47.36059088664943       -0.21110785738389       -1.21785476361777
C           48.02495601985179       -0.52418830713812       -2.44341625505890
C           47.07053894455625       -0.55190780609110       -3.40483061085099
C           45.82898255361665       -0.24709834848278       -2.76217882601068
C           44.64345885049389       -0.00604444014081       -3.43839514369600
C           44.65106826932304       -0.01410282057108       -4.92574058973960
C           43.97309643427426       -1.01547586899981       -5.63429813632878
O           43.34005362046227       -1.95150771069303       -4.88048900716106
C           42.62461730925646       -3.00398561351266       -5.49564451483030
C           43.98591508637704       -1.02277459132359       -7.02871849100257
C           44.67074288818512       -0.02672332768689       -7.70814250337957
C           45.34594481452488        0.97565879447118       -7.02839109003169
C           45.33903858793276        0.98094853876849       -5.63400526421821
O           45.96161078065307        1.92354983143863       -4.87984037744978
C           46.68944879881271        2.96839072132725       -5.49339612109467
C           43.45319661853234        0.24627210573509       -2.77402034416572
C           42.21581467089995        0.53671275343150       -3.43143968141138
C           41.25605186822441        0.53501698197061       -2.47535714039764
C           41.91258321032626        0.25167363204769       -1.23810342689744
N           43.26246248529908        0.13483750479124       -1.41626386461524
N           46.01324610313049       -0.09561409345197       -1.40732920837731
C           44.62037823180628        0.03876057994470        4.85213145273783
C           44.98654977817424       -1.11315375044675        5.55768622524072
O           45.32855934483108       -2.18700865300600        4.79939695320976
C           45.70162244739331       -3.40503041757064        5.41209746377833
C           44.98125483987928       -1.11222958520724        6.95246563410035
C           44.61201409777315        0.04055846878297        7.62921678924954
C           44.24698849051817        1.19254372333604        6.94879737008007
C           44.25010699860916        1.19161655649347        5.55403264331034
O           43.91293855065888        2.26443407329016        4.79219411452331
C           43.53389578827097        3.48266852496735        5.40066598277407
H           40.18926258507690       -0.70967994099420        2.48887156490924
H           42.09700538259226       -0.69888560708453        4.40648966676524
H           47.14173691958367        0.78570810196496        4.41639752992245
H           49.05651194566855        0.81305152202592        2.50572263101605
H           49.08626361759865       -0.68828080108272       -2.53964747678531
H           47.18503823239883       -0.74670688302121       -4.45875364388316
H           41.80553424984564       -2.62294378185074       -6.11745164579843
H           42.20927314618324       -3.60349738172073       -4.68354996092212
H           43.28247481353885       -3.63274831049889       -6.10772983483727
H           43.46996672656052       -1.79360882761149       -7.58526143094251
H           44.67848789718604       -0.03179310429010       -8.79256287087414
H           45.86998007744349        1.74134789910380       -7.58448590247991
H           47.09320307718985        3.57451921027070       -4.68035090974493
H           46.04321480384798        3.59297601188123       -6.12190078876003
H           47.51748229061960        2.57942677554363       -6.09822429276248
H           42.10748037325810        0.70285727504178       -4.49086813369504
H           40.19540311538509        0.69696919178901       -2.58179733045156
H           44.88794956130601       -3.81162400745060        6.02487808100138
H           45.91968510497214       -4.09971384959339        4.59892092237117
H           46.59758360876245       -3.28441219484559        6.03297872272084
H           45.26066924897822       -1.99564989999943        7.51076501946666
H           44.60865276510569        0.04120428337364        8.71372478092631
H           43.96414809944476        2.07667511695363        7.50423935595644
H           44.34249483023800        3.89104027407924        6.01897887957346
H           42.63351445312027        3.36163446894710        6.01503905831836
H           43.32101934582509        4.17610934074385        4.58505045382255

          :  Hamiltonian                  GFN1-xTB          :
         :: total energy            -410.166765992431 Eh    ::
         :: gradient norm              0.000644325712 Eh/a0 ::
         :: HOMO-LUMO gap              0.003253967771 eV    ::
         :: SCC energy              -416.208355662744 Eh    ::
         :: repulsion energy           6.242048431158 Eh    ::

    * Orbital Energies and Occupations

         #    Occupation            Energy/Eh            Energy/eV
      -------------------------------------------------------------
         1        2.0000           -0.8078187             -21.9819
       ...           ...                  ...                  ...
       356        2.0000           -0.3819155             -10.3925
       357        2.0000           -0.3810893             -10.3700
       358        2.0000           -0.3801197             -10.3436
       359        1.9999           -0.3789997             -10.3131
       360        1.9998           -0.3786247             -10.3029
       361        1.9997           -0.3784155             -10.2972
       362        1.9997           -0.3783863             -10.2964
       363        1.9997           -0.3781862             -10.2910
       364        1.9996           -0.3781578             -10.2902
       365        1.9891           -0.3748945             -10.2014
       366        1.8099           -0.3720578             -10.1242
       367        1.1189           -0.3700224             -10.0688
       368        1.0704           -0.3699203             -10.0660 (HOMO)
       369        1.0133           -0.3698007             -10.0628 (LUMO)
       370                         -0.3303151              -8.9883
       371                         -0.3208434              -8.7306
       372                         -0.3183624              -8.6631
       373                         -0.3145198              -8.5585
       374                         -0.3131349              -8.5208
       375                         -0.3114687              -8.4755
       376                         -0.2987201              -8.1286
       377                         -0.2936726              -7.9912
       378                         -0.2890794              -7.8663
       379                         -0.2845217              -7.7422
       ...                                ...                  ...
       779                          1.6133139              43.9005
      -------------------------------------------------------------
                  HL-Gap            0.0001196 Eh            0.0033 eV

Wiberg/Mayer (AO) data.
largest (>0.10) Wiberg bond orders for each atom

     #   Z sym  total        # sym  WBO       # sym  WBO       # sym  WBO
 ---------------------------------------------------------------------------
     1  27 Co   3.056 --    34 N    0.645     7 N    0.642    12 N    0.641
                            35 N    0.639
     2   6 C    3.934 --    33 C    1.367     3 C    1.364    46 H    0.970
     3   6 C    3.925 --     2 C    1.364     7 N    1.202     4 C    1.174
     4   6 C    3.960 --     5 C    1.650     3 C    1.174    47 H    0.976
     5   6 C    3.963 --     4 C    1.650     6 C    1.177    48 H    0.974
     6   6 C    3.918 --     8 C    1.326     7 N    1.208     5 C    1.177
     7   7 N    3.353 --     6 C    1.208     3 C    1.202     1 Co   0.642
     8   6 C    3.938 --     9 C    1.342     6 C    1.326    36 C    1.010
     9   6 C    3.915 --     8 C    1.342    12 N    1.188    10 C    1.180
    10   6 C    3.959 --    11 C    1.640     9 C    1.180    49 H    0.974
    11   6 C    3.962 --    10 C    1.640    13 C    1.188    50 H    0.974
    12   7 N    3.353 --    13 C    1.231     9 C    1.188     1 Co   0.641
    13   6 C    3.905 --    14 C    1.261    12 N    1.231    11 C    1.188
    14   6 C    3.941 --    15 C    1.263    13 C    1.261   145 C    1.186
    15   6 C    3.905 --    14 C    1.263    35 N    1.228    16 C    1.188
    16   6 C    3.961 --    17 C    1.640    15 C    1.188    51 H    0.974
    17   6 C    3.959 --    16 C    1.640    18 C    1.181    52 H    0.974
    18   6 C    3.915 --    19 C    1.337    35 N    1.191    17 C    1.181
    19   6 C    3.938 --    18 C    1.337    30 C    1.326    20 C    1.016
    20   6 C    3.977 --    21 C    1.342    27 C    1.342    19 C    1.016
                            25 C    0.100
    21   6 C    3.903 --    24 C    1.362    20 C    1.342    22 O    1.033
    22   8 O    2.146 --    21 C    1.033    23 C    0.935
    23   6 C    3.907 --    54 H    0.983    55 H    0.980    53 H    0.980
                            22 O    0.935
    24   6 C    3.983 --    25 C    1.442    21 C    1.362    56 H    0.969
    25   6 C    3.992 --    24 C    1.442    26 C    1.442    57 H    0.974
                            20 C    0.100
    26   6 C    3.983 --    25 C    1.442    27 C    1.362    58 H    0.969
    27   6 C    3.903 --    26 C    1.362    20 C    1.342    28 O    1.032
    28   8 O    2.145 --    27 C    1.032    29 C    0.935
    29   6 C    3.907 --    59 H    0.983    60 H    0.980    61 H    0.980
                            28 O    0.935
    30   6 C    3.919 --    19 C    1.326    34 N    1.208    31 C    1.176
    31   6 C    3.963 --    32 C    1.651    30 C    1.176    62 H    0.974
    32   6 C    3.960 --    31 C    1.651    33 C    1.173    63 H    0.976
    33   6 C    3.926 --     2 C    1.367    34 N    1.201    32 C    1.173
    34   7 N    3.351 --    30 C    1.208    33 C    1.201     1 Co   0.645
    35   7 N    3.354 --    15 C    1.228    18 C    1.191     1 Co   0.639
    36   6 C    3.977 --    43 C    1.345    37 C    1.344     8 C    1.010
                            41 C    0.101
    37   6 C    3.904 --    40 C    1.361    36 C    1.344    38 O    1.031
    38   8 O    2.145 --    37 C    1.031    39 C    0.935
    39   6 C    3.907 --    64 H    0.983    65 H    0.980    66 H    0.980
                            38 O    0.935
    40   6 C    3.983 --    41 C    1.442    37 C    1.361    67 H    0.969
    41   6 C    3.993 --    42 C    1.443    40 C    1.442    68 H    0.974
                            36 C    0.101
    42   6 C    3.983 --    41 C    1.443    43 C    1.361    69 H    0.969
    43   6 C    3.904 --    42 C    1.361    36 C    1.345    44 O    1.032
    44   8 O    2.145 --    43 C    1.032    45 C    0.935
    45   6 C    3.907 --    71 H    0.983    72 H    0.980    70 H    0.980
                            44 O    0.935
    46   1 H    1.001 --     2 C    0.970
    47   1 H    0.998 --     4 C    0.976
    48   1 H    1.002 --     5 C    0.974
    49   1 H    1.002 --    10 C    0.974
    50   1 H    1.002 --    11 C    0.974
    51   1 H    1.002 --    16 C    0.974
    52   1 H    1.002 --    17 C    0.974
    53   1 H    1.009 --    23 C    0.980
    54   1 H    1.015 --    23 C    0.983
    55   1 H    1.009 --    23 C    0.980
    56   1 H    1.000 --    24 C    0.969
    57   1 H    1.003 --    25 C    0.974
    58   1 H    1.000 --    26 C    0.969
    59   1 H    1.015 --    29 C    0.983
    60   1 H    1.009 --    29 C    0.980
    61   1 H    1.009 --    29 C    0.980
    62   1 H    1.002 --    31 C    0.974
    63   1 H    0.998 --    32 C    0.976
    64   1 H    1.015 --    39 C    0.983
    65   1 H    1.009 --    39 C    0.980
    66   1 H    1.009 --    39 C    0.980
    67   1 H    1.000 --    40 C    0.969
    68   1 H    1.003 --    41 C    0.974
    69   1 H    1.000 --    42 C    0.969
    70   1 H    1.009 --    45 C    0.980
    71   1 H    1.015 --    45 C    0.983
    72   1 H    1.009 --    45 C    0.980
    73  27 Co   3.039 --   106 N    0.640    79 N    0.639    84 N    0.635
                           107 N    0.634
    74   6 C    3.927 --   105 C    1.365    75 C    1.364   118 H    0.970
    75   6 C    3.926 --    74 C    1.364    79 N    1.202    76 C    1.174
    76   6 C    3.959 --    77 C    1.649    75 C    1.174   119 H    0.976
    77   6 C    3.963 --    76 C    1.649    78 C    1.178   120 H    0.974
    78   6 C    3.918 --    80 C    1.321    79 N    1.211    77 C    1.178
    79   7 N    3.348 --    78 C    1.211    75 C    1.202    73 Co   0.639
    80   6 C    3.931 --    81 C    1.342    78 C    1.321   108 C    1.013
    81   6 C    3.915 --    80 C    1.342    84 N    1.187    82 C    1.181
    82   6 C    3.958 --    83 C    1.640    81 C    1.181   121 H    0.974
    83   6 C    3.962 --    82 C    1.640    85 C    1.189   122 H    0.974
    84   7 N    3.348 --    85 C    1.236    81 C    1.187    73 Co   0.635
    85   6 C    3.904 --    86 C    1.254    84 N    1.236    83 C    1.189
    86   6 C    3.932 --    87 C    1.257    85 C    1.254   160 C    1.198
    87   6 C    3.903 --    86 C    1.257   107 N    1.233    88 C    1.188
    88   6 C    3.961 --    89 C    1.639    87 C    1.188   123 H    0.974
    89   6 C    3.959 --    88 C    1.639    90 C    1.181   124 H    0.974
    90   6 C    3.916 --    91 C    1.338   107 N    1.190    89 C    1.181
    91   6 C    3.931 --    90 C    1.338   102 C    1.322    92 C    1.018
    92   6 C    3.976 --    99 C    1.341    93 C    1.341    91 C    1.018
    93   6 C    3.903 --    96 C    1.362    92 C    1.341    94 O    1.033
    94   8 O    2.146 --    93 C    1.033    95 C    0.935
    95   6 C    3.907 --   126 H    0.983   127 H    0.980   125 H    0.980
                            94 O    0.935
    96   6 C    3.983 --    97 C    1.442    93 C    1.362   128 H    0.969
    97   6 C    3.992 --    96 C    1.442    98 C    1.442   129 H    0.973
    98   6 C    3.983 --    97 C    1.442    99 C    1.362   130 H    0.969
    99   6 C    3.903 --    98 C    1.362    92 C    1.341   100 O    1.032
   100   8 O    2.145 --    99 C    1.032   101 C    0.935
   101   6 C    3.907 --   131 H    0.983   132 H    0.980   133 H    0.980
                           100 O    0.935
   102   6 C    3.918 --    91 C    1.322   106 N    1.211   103 C    1.177
   103   6 C    3.963 --   104 C    1.650   102 C    1.177   134 H    0.974
   104   6 C    3.960 --   103 C    1.650   105 C    1.174   135 H    0.976
   105   6 C    3.926 --    74 C    1.365   106 N    1.202   104 C    1.174
   106   7 N    3.346 --   102 C    1.211   105 C    1.202    73 Co   0.640
   107   7 N    3.348 --    87 C    1.233    90 C    1.190    73 Co   0.634
   108   6 C    3.976 --   115 C    1.344   109 C    1.343    80 C    1.013
                           113 C    0.101
   109   6 C    3.903 --   112 C    1.362   108 C    1.343   110 O    1.031
   110   8 O    2.145 --   109 C    1.031   111 C    0.935
   111   6 C    3.907 --   136 H    0.983   137 H    0.980   138 H    0.980
                           110 O    0.935
   112   6 C    3.983 --   113 C    1.442   109 C    1.362   139 H    0.969
   113   6 C    3.993 --   114 C    1.442   112 C    1.442   140 H    0.973
                           108 C    0.101
   114   6 C    3.983 --   113 C    1.442   115 C    1.361   141 H    0.969
   115   6 C    3.903 --   114 C    1.361   108 C    1.344   116 O    1.031
   116   8 O    2.145 --   115 C    1.031   117 C    0.935
   117   6 C    3.907 --   143 H    0.983   142 H    0.980   144 H    0.980
                           116 O    0.935
   118   1 H    1.001 --    74 C    0.970
   119   1 H    0.998 --    76 C    0.976
   120   1 H    1.002 --    77 C    0.974
   121   1 H    1.002 --    82 C    0.974
   122   1 H    1.002 --    83 C    0.974
   123   1 H    1.002 --    88 C    0.974
   124   1 H    1.002 --    89 C    0.974
   125   1 H    1.009 --    95 C    0.980
   126   1 H    1.015 --    95 C    0.983
   127   1 H    1.009 --    95 C    0.980
   128   1 H    1.000 --    96 C    0.969
   129   1 H    1.003 --    97 C    0.973
   130   1 H    1.000 --    98 C    0.969
   131   1 H    1.015 --   101 C    0.983
   132   1 H    1.009 --   101 C    0.980
   133   1 H    1.009 --   101 C    0.980
   134   1 H    1.002 --   103 C    0.974
   135   1 H    0.998 --   104 C    0.976
   136   1 H    1.015 --   111 C    0.983
   137   1 H    1.009 --   111 C    0.980
   138   1 H    1.009 --   111 C    0.980
   139   1 H    1.000 --   112 C    0.969
   140   1 H    1.003 --   113 C    0.973
   141   1 H    1.000 --   114 C    0.969
   142   1 H    1.009 --   117 C    0.980
   143   1 H    1.015 --   117 C    0.983
   144   1 H    1.009 --   117 C    0.980
   145   6 C    3.872 --   146 C    2.440    14 C    1.186   148 C    0.186
   146   6 C    3.936 --   145 C    2.440   147 C    1.343
   147   6 C    3.888 --   148 C    2.335   146 C    1.343   150 C    0.181
   148   6 C    3.924 --   147 C    2.335   149 C    1.369   145 C    0.186
   149   6 C    3.921 --   150 C    2.333   148 C    1.369   152 C    0.185
   150   6 C    3.890 --   149 C    2.333   151 C    1.345   147 C    0.181
   151   6 C    3.929 --   152 C    2.435   150 C    1.345
   152   6 C    3.873 --   151 C    2.435   162 C    1.192   149 C    0.185
   153   6 C    3.870 --   154 C    2.422   174 C    1.201   156 C    0.184
   154   6 C    3.927 --   153 C    2.422   155 C    1.356
   155   6 C    3.887 --   156 C    2.319   154 C    1.356   158 C    0.180
   156   6 C    3.919 --   155 C    2.319   157 C    1.380   153 C    0.184
   157   6 C    3.920 --   158 C    2.320   156 C    1.380   160 C    0.185
   158   6 C    3.886 --   157 C    2.320   159 C    1.354   155 C    0.180
   159   6 C    3.931 --   160 C    2.425   158 C    1.354
   160   6 C    3.869 --   159 C    2.425    86 C    1.198   157 C    0.185
   161  27 Co   3.031 --   194 N    0.632   172 N    0.631   195 N    0.629
                           167 N    0.628
   162   6 C    3.923 --   193 C    1.259   163 C    1.255   152 C    1.192
   163   6 C    3.906 --   162 C    1.255   167 N    1.235   164 C    1.190
   164   6 C    3.960 --   165 C    1.636   163 C    1.190   206 H    0.974
   165   6 C    3.960 --   164 C    1.636   166 C    1.184   207 H    0.975
   166   6 C    3.912 --   168 C    1.332   167 N    1.194   165 C    1.184
   167   7 N    3.343 --   163 C    1.235   166 C    1.194   161 Co   0.628
   168   6 C    3.926 --   169 C    1.338   166 C    1.332   196 C    1.002
   169   6 C    3.913 --   168 C    1.338   172 N    1.191   170 C    1.183
   170   6 C    3.959 --   171 C    1.637   169 C    1.183   208 H    0.974
   171   6 C    3.960 --   170 C    1.637   173 C    1.190   209 H    0.974
   172   7 N    3.341 --   173 C    1.238   169 C    1.191   161 Co   0.631
   173   6 C    3.905 --   174 C    1.252   172 N    1.238   171 C    1.190
   174   6 C    3.922 --   173 C    1.252   175 C    1.252   153 C    1.201
   175   6 C    3.904 --   174 C    1.252   195 N    1.236   176 C    1.191
   176   6 C    3.960 --   177 C    1.636   175 C    1.191   210 H    0.974
   177   6 C    3.960 --   176 C    1.636   178 C    1.184   211 H    0.974
   178   6 C    3.913 --   179 C    1.330   195 N    1.193   177 C    1.184
   179   6 C    3.927 --   178 C    1.330   190 C    1.329   180 C    1.017
   180   6 C    3.976 --   181 C    1.341   187 C    1.340   179 C    1.017
   181   6 C    3.903 --   184 C    1.362   180 C    1.341   182 O    1.034
   182   8 O    2.146 --   181 C    1.034   183 C    0.934
   183   6 C    3.906 --   213 H    0.983   212 H    0.980   214 H    0.980
                           182 O    0.934
   184   6 C    3.983 --   185 C    1.442   181 C    1.362   215 H    0.969
   185   6 C    3.992 --   184 C    1.442   186 C    1.442   216 H    0.973
   186   6 C    3.983 --   185 C    1.442   187 C    1.362   217 H    0.969
   187   6 C    3.903 --   186 C    1.362   180 C    1.340   188 O    1.034
   188   8 O    2.146 --   187 C    1.034   189 C    0.934
   189   6 C    3.906 --   218 H    0.983   220 H    0.980   219 H    0.980
                           188 O    0.934
   190   6 C    3.912 --   179 C    1.329   194 N    1.195   191 C    1.183
   191   6 C    3.960 --   192 C    1.637   190 C    1.183   221 H    0.974
   192   6 C    3.960 --   191 C    1.637   193 C    1.189   222 H    0.974
   193   6 C    3.906 --   162 C    1.259   194 N    1.232   192 C    1.189
   194   7 N    3.342 --   193 C    1.232   190 C    1.195   161 Co   0.632
   195   7 N    3.342 --   175 C    1.236   178 C    1.193   161 Co   0.629
   196   6 C    3.977 --   197 C    1.347   203 C    1.346   168 C    1.002
                           201 C    0.102
   197   6 C    3.905 --   200 C    1.360   196 C    1.347   198 O    1.033
   198   8 O    2.145 --   197 C    1.033   199 C    0.935
   199   6 C    3.907 --   224 H    0.983   223 H    0.980   225 H    0.980
                           198 O    0.935
   200   6 C    3.983 --   201 C    1.443   197 C    1.360   226 H    0.969
   201   6 C    3.995 --   200 C    1.443   202 C    1.443   227 H    0.973
                           196 C    0.102
   202   6 C    3.983 --   201 C    1.443   203 C    1.360   228 H    0.969
   203   6 C    3.905 --   202 C    1.360   196 C    1.346   204 O    1.033
   204   8 O    2.145 --   203 C    1.033   205 C    0.935
   205   6 C    3.907 --   231 H    0.983   229 H    0.980   230 H    0.980
                           204 O    0.935
   206   1 H    1.002 --   164 C    0.974
   207   1 H    1.001 --   165 C    0.975
   208   1 H    1.001 --   170 C    0.974
   209   1 H    1.002 --   171 C    0.974
   210   1 H    1.002 --   176 C    0.974
   211   1 H    1.002 --   177 C    0.974
   212   1 H    1.009 --   183 C    0.980
   213   1 H    1.015 --   183 C    0.983
   214   1 H    1.009 --   183 C    0.980
   215   1 H    1.000 --   184 C    0.969
   216   1 H    1.003 --   185 C    0.973
   217   1 H    1.000 --   186 C    0.969
   218   1 H    1.015 --   189 C    0.983
   219   1 H    1.009 --   189 C    0.980
   220   1 H    1.009 --   189 C    0.980
   221   1 H    1.002 --   191 C    0.974
   222   1 H    1.002 --   192 C    0.974
   223   1 H    1.009 --   199 C    0.980
   224   1 H    1.015 --   199 C    0.983
   225   1 H    1.009 --   199 C    0.980
   226   1 H    0.999 --   200 C    0.969
   227   1 H    1.003 --   201 C    0.973
   228   1 H    0.999 --   202 C    0.969
   229   1 H    1.009 --   205 C    0.980
   230   1 H    1.009 --   205 C    0.980
   231   1 H    1.015 --   205 C    0.983
 ---------------------------------------------------------------------------

           -------------------------------------------------
          | TOTAL ENERGY             -410.166765992431 Eh   |
          | GRADIENT NORM               0.000644325712 Eh/α |
          | HOMO-LUMO GAP               0.003253967771 eV   |
           -------------------------------------------------

 * finished run on 2022/07/30 at 04:56:43.932
