   * xtb version 6.5.1 (b24c23e) compiled by 'conda@728c89f4b128' on 2022-07-12
          program call               : xtb Cu_C2Py_C4_2.xyz --gfn 1 --opt -T 48

   ID    Z sym.   atoms
    1   29 Cu     1, 59
    2    6 C      2-6, 8-13, 15-19, 21-26, 28-33, 35-40, 60-64, 66-71, 73-77,
                  79-84, 86-91, 93-98, 117-120
    3    7 N      7, 14, 20, 27, 34, 41, 65, 72, 78, 85, 92, 99
    4    1 H      42-58, 100-116
########################################################################
[WARNING] Please study the warnings concerning your input carefully
-1- prog_main_parseArguments: Unknown option '-T' provided
########################################################################

          :  Hamiltonian                  GFN1-xTB          :
 * total energy  :  -217.0381791 Eh     change       -0.7494890E-08 Eh
 * total energy  :  -217.3556762 Eh     change       -0.3174970E+00 Eh
 * total energy  :  -217.4297529 Eh     change       -0.7407677E-01 Eh
 * total energy  :  -217.4585649 Eh     change       -0.2881193E-01 Eh
 * total energy  :  -217.4652303 Eh     change       -0.6665464E-02 Eh
 * total energy  :  -217.4687737 Eh     change       -0.3543340E-02 Eh
 * total energy  :  -217.4700430 Eh     change       -0.1269349E-02 Eh
 * total energy  :  -217.4712369 Eh     change       -0.1193915E-02 Eh
 * total energy  :  -217.4718511 Eh     change       -0.6141490E-03 Eh
 * total energy  :  -217.4724856 Eh     change       -0.6345353E-03 Eh
 * total energy  :  -217.4746598 Eh     change       -0.1201604E-04 Eh
 * total energy  :  -217.4746690 Eh     change       -0.9180591E-05 Eh
 * total energy  :  -217.4746834 Eh     change       -0.1442231E-04 Eh
 * total energy  :  -217.4746929 Eh     change       -0.9473477E-05 Eh
 * total energy  :  -217.4746994 Eh     change       -0.6482992E-05 Eh
 * total energy  :  -217.4747059 Eh     change       -0.6570593E-05 Eh
 * total energy  :  -217.4747132 Eh     change       -0.7224303E-05 Eh
 * total energy  :  -217.4747191 Eh     change       -0.5912663E-05 Eh
 * total energy  :  -217.4747213 Eh     change       -0.2242480E-05 Eh
   *** GEOMETRY OPTIMIZATION CONVERGED AFTER 44 ITERATIONS ***

 final structure:
================
120
 xtb: 6.5.1 (b24c23e)
Cu          16.14735421757018        0.08258900734853        0.03177421202795
C           12.73103141618629        0.10996472270163        0.06637555616560
C           13.37116157030610        0.98434788073209        0.93155978069304
C           12.70630962314483        1.88490834528826        1.82939332667255
C           13.67411195198347        2.56678545882959        2.49275369393700
C           14.93452875224193        2.08713903495262        2.00269997160139
N           14.72551437713841        1.12844358175616        1.06114185336575
C           16.18845451884963        2.55111747870998        2.43161809803750
C           16.20293299442278        3.55984370785589        3.42088881079475
C           16.20655087409997        4.42430503815450        4.27247507313958
C           16.21397845901041        5.43128234491736        5.26460768839683
C           17.41315981827572        5.98464819321550        5.72865133224134
C           17.36572728821077        6.96755624384284        6.70100381368756
N           16.22861765619792        7.41903205089108        7.22441826647694
C           15.08438476997948        6.89751612603407        6.78912268578966
C           15.02242753900689        5.91168872645734        5.82051600474698
C           17.42596238034830        2.09112025067340        1.95577414740888
C           18.69829162524926        2.57762680365084        2.39889297133640
C           19.64608653652390        1.88336533232339        1.71718933421741
N           17.60953700275904        1.11775226074857        1.01696149892760
C           18.95535629696402        0.97060093202080        0.85654296279530
C           19.58622986784486        0.05698155451284       -0.00533371920154
C           18.92307192357078       -0.84594277609340       -0.85411134580623
C           19.58141363904586       -1.76808565371522       -1.73002007621765
C           18.60887519859806       -2.44972410780079       -2.38917531545007
C           17.35376540492544       -1.94602700468296       -1.91705655281544
N           17.57205749293118       -0.97433480114627       -0.98403698567017
C           16.09962140790376       -2.39177884746893       -2.36229006793655
C           16.08143207606527       -3.40841379696969       -3.34334683067335
C           16.06675354793597       -4.28364106077514       -4.18369310143771
C           16.05481591915839       -5.30418520418609       -5.16180632100807
C           17.24480275237313       -5.87155655444382       -5.63255499355504
C           17.17939256560496       -6.86793615076074       -6.59007561162501
N           16.03322434008078       -7.31973212255475       -7.09293321699580
C           14.89760880110669       -6.78500690377743       -6.65105066268438
C           14.85359983654964       -5.78511669399013       -5.69600088450854
C           14.86222612234491       -1.90755595614890       -1.90887909987971
C           13.58450521678423       -2.36907892348122       -2.37063803535716
C           12.64161190213792       -1.66859537548166       -1.69094281915048
C           13.33916712399565       -0.77571692612027       -0.81035752249796
N           14.68801582071341       -0.94197308709804       -0.96721424382615
H           11.64589743701309        0.11884258846154        0.07737755214591
H           11.63597360633697        1.97357740190900        1.92909907833636
H           13.55826639596678        3.32872063063737        3.24718259026635
H           18.36169093225799        5.64597119210725        5.32964542004057
H           18.28078032922539        7.41473788557693        7.07868157239830
H           14.17548165072619        7.28852847222611        7.23746095417206
H           14.06830297725478        5.51491554268558        5.49508667693956
H           18.83804687061523        3.35107546244049        3.13719603396837
H           20.71848661312703        1.97327598467397        1.78486052737828
H           20.65062924503290       -1.87215415191250       -1.82289468012373
H           18.72135394794199       -3.22465805234477       -3.13056181834406
H           18.20035014226917       -5.53333983718766       -5.25020329136071
H           18.08703661165662       -7.32605793060329       -6.97251403992347
H           13.98092758449597       -7.17658159172269       -7.08269641771039
H           13.90611782570235       -5.37773286428333       -5.36442422375591
H           13.44108827324553       -3.13225471080787       -3.11906140969784
H           11.56813931099574       -1.74010572516521       -1.76825279018446
Cu          29.63402613426704       -0.06983118436079       -0.05247421139295
C           33.05032215628803       -0.11278803853372       -0.06034022789175
C           32.41048406853643       -1.30387797677502       -0.36820316434529
C           33.07556186924897       -2.53580552392842       -0.68317117682098
C           32.10790054854874       -3.45553437303785       -0.92686286854108
C           30.84734815272943       -2.78988390529835       -0.76319298645005
N           31.05618297272149       -1.48988922575544       -0.42299777643435
C           29.59331989058578       -3.39686021405511       -0.93796047188231
C           29.57853441739511       -4.76345294046891       -1.29660162806669
C           29.57622515178293       -5.93823844511373       -1.60037983315966
C           29.56880026992454       -7.30594961479806       -1.95777446086592
C           28.36909343194051       -7.99206871251154       -2.18037147557869
C           28.41687427184075       -9.33027137454957       -2.52795715162743
N           29.55477888945653      -10.00689414875175       -2.66284409927139
C           30.69953479033023       -9.36194939777952       -2.45229861752200
C           30.76119162689283       -8.02514702451438       -2.10150726706448
C           28.35582531780117       -2.75290166704915       -0.78481885784047
C           27.08350448002030       -3.38382787255630       -0.97187997616787
C           26.13563702126061       -2.44226913011377       -0.72682170096841
N           28.17217630071880       -1.44701298758256       -0.43342809960074
C           26.82630558917176       -1.23420211484441       -0.38848297331349
C           26.19513199337581       -0.02503747189676       -0.04936487199431
C           26.85799691160080        1.16765354509928        0.28779494220405
C           26.19956380493380        2.39333243200390        0.62716730412833
C           27.17204952558517        3.30885762288046        0.87422178475480
C           28.42720545690486        2.64455198471667        0.68660342220888
N           28.20897847878309        1.34485964536262        0.33239764040650
C           29.68139613619503        3.25483852549514        0.84264081009735
C           29.69962874487988        4.61868145551894        1.21134463121509
C           29.71313224751477        5.78929617026950        1.53056584937948
C           29.72566275075715        7.15315213400937        1.90217886538253
C           28.53559805981711        7.85369731989254        2.13146434663648
C           28.60201248655179        9.18733196975020        2.49330936885390
N           29.74922074504224        9.84631195276827        2.63598423717353
C           30.88493666561746        9.18748638165110        2.41934580360023
C           30.92798401894630        7.85377404264936        2.05441312636830
C           30.91876830615610        2.61663582930482        0.66150039900425
C           32.19644678298494        3.24942161655280        0.82246572660966
C           33.13941083404420        2.30689165989004        0.56917789174168
C           32.44195114196552        1.09341669149063        0.25251928626663
N           31.09306329955000        1.31327566497989        0.31459287413216
H           34.13546242123600       -0.12625607658266       -0.06327588625114
H           34.14594053210079       -2.66604798867675       -0.71063366052699
H           32.22400128012944       -4.49370013020676       -1.19494800132442
H           27.41985894102890       -7.47944306787422       -2.08123742671348
H           27.50141674185549       -9.88691073507061       -2.70697540402920
H           31.60910669963020       -9.94391592882021       -2.57069712269186
H           31.71574110998797       -7.53908117146043       -1.93945593551534
H           26.94381259680664       -4.41515416676581       -1.25418131335142
H           25.06321751846577       -2.54692453887821       -0.76772548224971
H           25.13035185715459        2.52694272383686        0.66728993585614
H           27.05947946861585        4.34318696646027        1.15762341469360
H           27.57920490877126        7.35574275604892        2.02648605568450
H           27.69433159767583        9.75485245918208        2.67771096285690
H           31.80250228122500        9.75528414410104        2.54442468318314
H           31.87556072061236        7.35579652185389        1.88780984305482
H           32.33973942683151        4.28300773040693        1.09506961579698
H           34.21287782074013        2.40982675390042        0.59166991333191
C           22.21521259075573        0.03034200706742       -0.02713874812770
C           20.99387491452681        0.04358943235210       -0.01827891336514
C           23.56621485634017        0.01272620123927       -0.03675063467839
C           24.78748659082066       -0.00701661785841       -0.04493871965124

          :  Hamiltonian                  GFN1-xTB          :
         :: total energy            -217.474721324792 Eh    ::
         :: gradient norm              0.000429388922 Eh/a0 ::
         :: HOMO-LUMO gap              0.000040199318 eV    ::
         :: SCC energy              -221.092281506472 Eh    ::
         :: repulsion energy           3.717588357115 Eh    ::

    * Orbital Energies and Occupations

         #    Occupation            Energy/Eh            Energy/eV
      -------------------------------------------------------------
         1        2.0000           -0.7722462             -21.0139
       ...           ...                  ...                  ...
       190        2.0000           -0.4192740             -11.4090
       191        2.0000           -0.4192633             -11.4087
       192        2.0000           -0.4162076             -11.3256
       193        2.0000           -0.4162018             -11.3254
       194        2.0000           -0.4159574             -11.3188
       195        2.0000           -0.4158602             -11.3161
       196        2.0000           -0.4156854             -11.3114
       197        2.0000           -0.4156805             -11.3112
       198        2.0000           -0.4032566             -10.9732
       199        2.0000           -0.4032528             -10.9731
       200        2.0000           -0.3964871             -10.7890
       201        2.0000           -0.3877217             -10.5504
       202        1.0004           -0.3638788              -9.9016 (HOMO)
       203        0.9996           -0.3638773              -9.9016 (LUMO)
       204                         -0.3450818              -9.3902
       205                         -0.3439258              -9.3587
       206                         -0.3439241              -9.3587
       207                         -0.3323953              -9.0449
       208                         -0.3157466              -8.5919
       209                         -0.3117247              -8.4825
       210                         -0.2884606              -7.8494
       211                         -0.2884542              -7.8492
       212                         -0.2844901              -7.7414
       213                         -0.2816667              -7.6645
       ...                                ...                  ...
       422                          1.5106616              41.1072
      -------------------------------------------------------------
                  HL-Gap            0.0000015 Eh            0.0000 eV

Wiberg/Mayer (AO) data.
largest (>0.10) Wiberg bond orders for each atom

     #   Z sym  total        # sym  WBO       # sym  WBO       # sym  WBO
 ---------------------------------------------------------------------------
     1  29 Cu   2.173 --     7 N    0.502    41 N    0.502    27 N    0.500
                            20 N    0.500
     2   6 C    3.930 --     3 C    1.364    40 C    1.364    42 H    0.971
     3   6 C    3.908 --     2 C    1.364     7 N    1.220     4 C    1.173
     4   6 C    3.955 --     5 C    1.650     3 C    1.173    43 H    0.976
     5   6 C    3.957 --     4 C    1.650     6 C    1.180    44 H    0.974
     6   6 C    3.904 --     8 C    1.269     7 N    1.258     5 C    1.180
     7   7 N    3.243 --     6 C    1.258     3 C    1.220     1 Cu   0.502
     8   6 C    3.932 --    17 C    1.276     6 C    1.269     9 C    1.159
     9   6 C    3.958 --    10 C    2.625     8 C    1.159
    10   6 C    3.933 --     9 C    2.625    11 C    1.141
    11   6 C    3.987 --    16 C    1.350    12 C    1.350    10 C    1.141
    12   6 C    3.973 --    13 C    1.457    11 C    1.350    45 H    0.974
                            15 C    0.104
    13   6 C    3.973 --    12 C    1.457    14 N    1.407    46 H    0.972
                            16 C    0.104
    14   7 N    2.994 --    15 C    1.407    13 C    1.407
    15   6 C    3.973 --    16 C    1.457    14 N    1.407    47 H    0.972
                            12 C    0.104
    16   6 C    3.973 --    15 C    1.457    11 C    1.350    48 H    0.974
                            13 C    0.104
    17   6 C    3.898 --     8 C    1.276    20 N    1.240    18 C    1.187
    18   6 C    3.954 --    19 C    1.637    17 C    1.187    49 H    0.974
    19   6 C    3.956 --    18 C    1.637    21 C    1.189    50 H    0.974
    20   7 N    3.245 --    21 C    1.246    17 C    1.240     1 Cu   0.500
    21   6 C    3.889 --    22 C    1.264    20 N    1.246    19 C    1.189
    22   6 C    3.937 --    23 C    1.264    21 C    1.264   118 C    1.181
    23   6 C    3.889 --    22 C    1.264    27 N    1.246    24 C    1.189
    24   6 C    3.956 --    25 C    1.637    23 C    1.189    51 H    0.974
    25   6 C    3.954 --    24 C    1.637    26 C    1.187    52 H    0.974
    26   6 C    3.898 --    28 C    1.276    27 N    1.240    25 C    1.187
    27   7 N    3.246 --    23 C    1.246    26 C    1.240     1 Cu   0.500
    28   6 C    3.932 --    26 C    1.276    37 C    1.270    29 C    1.159
    29   6 C    3.958 --    30 C    2.625    28 C    1.159
    30   6 C    3.933 --    29 C    2.625    31 C    1.141
    31   6 C    3.987 --    36 C    1.350    32 C    1.350    30 C    1.141
    32   6 C    3.973 --    33 C    1.457    31 C    1.350    53 H    0.974
                            35 C    0.104
    33   6 C    3.973 --    32 C    1.457    34 N    1.407    54 H    0.972
                            36 C    0.104
    34   7 N    2.994 --    33 C    1.407    35 C    1.407
    35   6 C    3.973 --    36 C    1.457    34 N    1.407    55 H    0.972
                            32 C    0.104
    36   6 C    3.973 --    35 C    1.457    31 C    1.350    56 H    0.974
                            33 C    0.104
    37   6 C    3.905 --    28 C    1.270    41 N    1.258    38 C    1.180
    38   6 C    3.957 --    39 C    1.650    37 C    1.180    57 H    0.974
    39   6 C    3.955 --    38 C    1.650    40 C    1.173    58 H    0.976
    40   6 C    3.908 --     2 C    1.364    41 N    1.220    39 C    1.173
    41   7 N    3.242 --    37 C    1.258    40 C    1.220     1 Cu   0.502
    42   1 H    1.001 --     2 C    0.971
    43   1 H    0.998 --     4 C    0.976
    44   1 H    1.003 --     5 C    0.974
    45   1 H    1.002 --    12 C    0.974
    46   1 H    1.013 --    13 C    0.972
    47   1 H    1.013 --    15 C    0.972
    48   1 H    1.002 --    16 C    0.974
    49   1 H    1.002 --    18 C    0.974
    50   1 H    1.002 --    19 C    0.974
    51   1 H    1.002 --    24 C    0.974
    52   1 H    1.003 --    25 C    0.974
    53   1 H    1.002 --    32 C    0.974
    54   1 H    1.013 --    33 C    0.972
    55   1 H    1.013 --    35 C    0.972
    56   1 H    1.002 --    36 C    0.974
    57   1 H    1.002 --    38 C    0.974
    58   1 H    0.998 --    39 C    0.976
    59  29 Cu   2.173 --    99 N    0.502    65 N    0.502    78 N    0.500
                            85 N    0.500
    60   6 C    3.930 --    61 C    1.364    98 C    1.364   100 H    0.971
    61   6 C    3.908 --    60 C    1.364    65 N    1.220    62 C    1.173
    62   6 C    3.955 --    63 C    1.650    61 C    1.173   101 H    0.976
    63   6 C    3.957 --    62 C    1.650    64 C    1.180   102 H    0.974
    64   6 C    3.904 --    66 C    1.269    65 N    1.258    63 C    1.180
    65   7 N    3.242 --    64 C    1.258    61 C    1.220    59 Cu   0.502
    66   6 C    3.932 --    75 C    1.276    64 C    1.269    67 C    1.159
    67   6 C    3.958 --    68 C    2.625    66 C    1.159
    68   6 C    3.933 --    67 C    2.625    69 C    1.141
    69   6 C    3.987 --    70 C    1.350    74 C    1.350    68 C    1.141
    70   6 C    3.973 --    71 C    1.457    69 C    1.350   103 H    0.974
                            73 C    0.104
    71   6 C    3.973 --    70 C    1.457    72 N    1.407   104 H    0.972
                            74 C    0.104
    72   7 N    2.994 --    73 C    1.407    71 C    1.407
    73   6 C    3.973 --    74 C    1.457    72 N    1.407   105 H    0.972
                            70 C    0.104
    74   6 C    3.973 --    73 C    1.457    69 C    1.350   106 H    0.974
                            71 C    0.104
    75   6 C    3.898 --    66 C    1.276    78 N    1.240    76 C    1.187
    76   6 C    3.954 --    77 C    1.637    75 C    1.187   107 H    0.974
    77   6 C    3.956 --    76 C    1.637    79 C    1.189   108 H    0.974
    78   7 N    3.246 --    79 C    1.246    75 C    1.240    59 Cu   0.500
    79   6 C    3.889 --    80 C    1.264    78 N    1.246    77 C    1.189
    80   6 C    3.937 --    79 C    1.264    81 C    1.264   120 C    1.181
    81   6 C    3.889 --    80 C    1.264    85 N    1.246    82 C    1.189
    82   6 C    3.956 --    83 C    1.637    81 C    1.189   109 H    0.974
    83   6 C    3.954 --    82 C    1.637    84 C    1.187   110 H    0.974
    84   6 C    3.898 --    86 C    1.276    85 N    1.240    83 C    1.187
    85   7 N    3.245 --    81 C    1.246    84 C    1.240    59 Cu   0.500
    86   6 C    3.932 --    84 C    1.276    95 C    1.270    87 C    1.159
    87   6 C    3.958 --    88 C    2.625    86 C    1.159
    88   6 C    3.933 --    87 C    2.625    89 C    1.141
    89   6 C    3.987 --    94 C    1.350    90 C    1.350    88 C    1.141
    90   6 C    3.973 --    91 C    1.457    89 C    1.350   111 H    0.974
                            93 C    0.104
    91   6 C    3.973 --    90 C    1.457    92 N    1.407   112 H    0.972
                            94 C    0.104
    92   7 N    2.994 --    91 C    1.407    93 C    1.407
    93   6 C    3.973 --    94 C    1.457    92 N    1.407   113 H    0.972
                            90 C    0.104
    94   6 C    3.973 --    93 C    1.457    89 C    1.350   114 H    0.974
                            91 C    0.104
    95   6 C    3.905 --    86 C    1.270    99 N    1.258    96 C    1.180
    96   6 C    3.957 --    97 C    1.650    95 C    1.180   115 H    0.974
    97   6 C    3.955 --    96 C    1.650    98 C    1.173   116 H    0.976
    98   6 C    3.908 --    60 C    1.364    99 N    1.220    97 C    1.173
    99   7 N    3.242 --    95 C    1.258    98 C    1.220    59 Cu   0.502
   100   1 H    1.001 --    60 C    0.971
   101   1 H    0.998 --    62 C    0.976
   102   1 H    1.003 --    63 C    0.974
   103   1 H    1.002 --    70 C    0.974
   104   1 H    1.013 --    71 C    0.972
   105   1 H    1.013 --    73 C    0.972
   106   1 H    1.002 --    74 C    0.974
   107   1 H    1.002 --    76 C    0.974
   108   1 H    1.002 --    77 C    0.974
   109   1 H    1.002 --    82 C    0.974
   110   1 H    1.003 --    83 C    0.974
   111   1 H    1.002 --    90 C    0.974
   112   1 H    1.013 --    91 C    0.972
   113   1 H    1.013 --    93 C    0.972
   114   1 H    1.002 --    94 C    0.974
   115   1 H    1.002 --    96 C    0.974
   116   1 H    0.998 --    97 C    0.976
   117   6 C    3.936 --   118 C    2.486   119 C    1.301
   118   6 C    3.926 --   117 C    2.486    22 C    1.181   120 C    0.199
   119   6 C    3.936 --   120 C    2.486   117 C    1.301
   120   6 C    3.926 --   119 C    2.486    80 C    1.181   118 C    0.199
 ---------------------------------------------------------------------------

           -------------------------------------------------
          | TOTAL ENERGY             -217.474721324792 Eh   |
          | GRADIENT NORM               0.000429388922 Eh/α |
          | HOMO-LUMO GAP               0.000040199318 eV   |
           -------------------------------------------------

 * finished run on 2022/07/30 at 07:33:40.169
