   * xtb version 6.5.1 (b24c23e) compiled by 'conda@728c89f4b128' on 2022-07-12
          program call               : xtb PhCN_C8_2.xyz --gfn 1 --opt -T 48

   ID    Z sym.   atoms
    1    6 C      1-5, 7-12, 14-18, 20-25, 27-32, 34-39, 60-64, 66-71, 73-77,
                  79-84, 86-91, 93-98, 119-126
    2    7 N      6, 13, 19, 26, 33, 40, 65, 72, 78, 85, 92, 99
    3    1 H      41-59, 100-118
########################################################################
[WARNING] Please study the warnings concerning your input carefully
-1- prog_main_parseArguments: Unknown option '-T' provided
########################################################################

          :  Hamiltonian                  GFN1-xTB          :
 * total energy  :  -218.0440898 Eh     change       -0.1623732E-09 Eh
 * total energy  :  -218.7592856 Eh     change       -0.7151958E+00 Eh
 * total energy  :  -218.8909961 Eh     change       -0.1317105E+00 Eh
 * total energy  :  -218.9498984 Eh     change       -0.5890237E-01 Eh
 * total energy  :  -218.9715079 Eh     change       -0.2160943E-01 Eh
 * total energy  :  -218.9834088 Eh     change       -0.1190090E-01 Eh
 * total energy  :  -218.9895079 Eh     change       -0.6099160E-02 Eh
 * total energy  :  -218.9929903 Eh     change       -0.3482371E-02 Eh
 * total energy  :  -218.9950227 Eh     change       -0.2032344E-02 Eh
 * total energy  :  -218.9974741 Eh     change       -0.2451484E-02 Eh
 * total energy  :  -219.0105684 Eh     change       -0.9558894E-05 Eh
 * total energy  :  -219.0105848 Eh     change       -0.1635581E-04 Eh
 * total energy  :  -219.0105942 Eh     change       -0.9479974E-05 Eh
 * total energy  :  -219.0106027 Eh     change       -0.8501709E-05 Eh
 * total energy  :  -219.0106111 Eh     change       -0.8414983E-05 Eh
 * total energy  :  -219.0106196 Eh     change       -0.8429518E-05 Eh
 * total energy  :  -219.0106265 Eh     change       -0.6873535E-05 Eh
 * total energy  :  -219.0106318 Eh     change       -0.5365702E-05 Eh
 * total energy  :  -219.0106362 Eh     change       -0.4342363E-05 Eh
   *** GEOMETRY OPTIMIZATION CONVERGED AFTER 66 ITERATIONS ***

 final structure:
================
126
 xtb: 6.5.1 (b24c23e)
C            9.71283440078788        0.09807166812416        0.03930902147204
C           10.32262018421067        1.34525435951588        0.00014279923642
C            9.67193279926739        2.61103966214523       -0.00550880660825
C           10.63409209863858        3.57895319773703       -0.07109133109490
C           11.90370828992434        2.93493496469051       -0.11703315592352
N           11.66536478459046        1.59143203542026       -0.05966442818471
C           13.16712878803611        3.53342357107854       -0.18616995202124
C           13.20002671101405        5.01249058401897       -0.27581576580763
C           13.84257391298778        5.76769308306584        0.70835473953210
C           13.87616451697517        7.14809059710662        0.62804269883699
C           13.26768156691751        7.80277025326325       -0.44711159936662
C           13.30347384180106        9.22307624240503       -0.53491553674047
N           13.33155550212886       10.37135391348102       -0.60503181220342
C           12.62418967968493        7.05193188945946       -1.43532386193278
C           12.59017068418392        5.67190904415999       -1.34572408138469
C           14.38267453854188        2.84442487161633       -0.17875604139458
C           15.67903277824875        3.48434755773900       -0.31427078976768
C           16.59923310933280        2.49986328011730       -0.25292644063805
N           14.53655980753455        1.49675116360015       -0.06320322655193
C           15.86354984345921        1.26058128460757       -0.09258025141871
C           16.50099967852997        0.00809088639402        0.02129429955822
C           15.86476315081177       -1.24376499719125        0.12311844734250
C           16.50838740943465       -2.50218176860011        0.25759824965829
C           15.54152409056975       -3.46833205671868        0.29749200291876
C           14.27662685785885       -2.82808461122340        0.18024610172190
N           14.52362459053437       -1.48403248475374        0.08920014184117
C           13.01404175052409       -3.43179063999753        0.18191479988409
C           12.98312833913320       -4.91158783275595        0.24384449703517
C           12.34084274688664       -5.56543288604233        1.29837245270673
C           12.31212992488213       -6.94701025780104        1.35846650424537
C           12.92501478356647       -7.70554583425027        0.35657382243908
C           12.89544362111546       -9.12751085291276        0.41408736448795
N           12.87186165549218      -10.27714017893662        0.46026907920234
C           13.56748707530276       -7.05665834351900       -0.70206495939734
C           13.59656055283025       -5.67471957888815       -0.75296790044960
C           11.79713651646667       -2.74311675026361        0.12866272705348
C           10.49257717113198       -3.38564114658706        0.07974842309978
C            9.57961887133882       -2.39437584258023        0.04727379182345
C           10.32516048737747       -1.14797741039185        0.06077074028605
N           11.65734391554656       -1.39687253932235        0.09950675705558
H            8.62758632612960        0.10795122454659        0.04830959346516
H            8.60357131241134        2.74945547806598        0.04057157777592
H           10.48377925700626        4.64632428064036       -0.07766935717162
H           12.38992941817199        0.88132914328462       -0.05929446928540
H           14.30475929719735        5.26442302480672        1.55000194469636
H           14.37274904055786        7.72707058629880        1.39784229937681
H           12.15494887616745        7.55549875971146       -2.27240287140114
H           12.10323125944277        5.09314093131558       -2.12256478449004
H           15.84149104324112        4.54087567664852       -0.45276212061950
H           17.67265615887528        2.57741739448640       -0.31755142379994
H           17.57568987858976       -2.64024245012827        0.32031627030496
H           15.68857930303324       -4.53001385370319        0.41026993046761
H           13.80203343124409       -0.77467892361004        0.01324949594381
H           11.87684669564165       -4.98140726536356        2.08504995530689
H           11.81667186343981       -7.44660012691532        2.18269954062271
H           14.04034178579298       -7.64086628375073       -1.48279090292558
H           14.08301385901775       -5.17609901109261       -1.58381057575871
H           10.32324884378476       -4.45013778202188        0.05910637254607
H            8.50418396960426       -2.46752016888650        0.00665676758864
C           35.03195440678597       -0.08422337290468        0.07179045015676
C           34.42239713584695       -1.29376350355959        0.37888653200381
C           35.07304207832077       -2.51111792959573        0.72578104890708
C           34.11095384184917       -3.45967754304934        0.92966020194974
C           32.84147559924698       -2.85425480609494        0.70468347326678
N           33.07975716053166       -1.54748057513487        0.38741840397678
C           31.57812949924999       -3.44893563969236        0.80178057348060
C           31.54495716108762       -4.89491979657085        1.12568150010501
C           30.90148362757849       -5.34760750388688        2.28012136869457
C           30.86719204204134       -6.69621938263968        2.58541131199941
C           31.47571264843887       -7.62336357806241        1.73402835805909
C           31.43918324963059       -9.01247433037316        2.04276159903434
N           31.41034144212504      -10.13538279984098        2.29284526398960
C           32.12017805569722       -7.17595044906078        0.57689359214518
C           32.15507669568591       -5.82513689760776        0.28074703380002
C           30.36268744447760       -2.78544366733224        0.61543378681410
C           29.06662095205518       -3.43859889920759        0.66001194002119
C           28.14626197391523       -2.47606099690983        0.44505454385979
N           30.20855791702244       -1.45857014219219        0.35292874056925
C           28.88161694975370       -1.24044176480150        0.25732198435291
C           28.24396434260501       -0.00573027664284        0.01868672895552
C           28.87998492788295        1.22511936627534       -0.23181993065706
C           28.23597136000697        2.47055056823508       -0.45574713246940
C           29.20267391367060        3.41007032046968       -0.68514402853039
C           30.46791048012231        2.76350183135789       -0.61577720303849
N           30.22117462586774        1.44726120203828       -0.32866268048338
C           31.73056458246048        3.34468787262756       -0.77859159592380
C           31.76154755840472        4.78332064046848       -1.13064735943543
C           32.40123716241821        5.70506738685623       -0.29802578591846
C           32.43033323147459        7.04882436056032       -0.62466511691381
C           31.82035117664720        7.49836388476212       -1.79962781546984
C           31.85054301333594        8.87996335124653       -2.14086824292889
N           31.87510633475145        9.99645917673353       -2.41859521598057
C           31.18024189817749        6.58026874718571       -2.63746942667455
C           31.15087306239700        5.23873228330280       -2.30197300807430
C           32.94753603496898        2.66914096785987       -0.63483252507096
C           34.25230263728547        3.27368392828963       -0.85673848887250
C           35.16522147127922        2.31282227248254       -0.61086450908232
C           34.41952034910538        1.11859083408993       -0.25409835097513
N           33.08726596684620        1.36776031340418       -0.28893523279499
H           36.11718690619073       -0.09049556743378        0.08507575879351
H           36.14131621280354       -2.63084526113135        0.81027983186287
H           34.26118260103163       -4.48690646684434        1.21975031734263
H           32.35524600924575       -0.86548650844111        0.18942255454450
H           30.43897368792475       -4.63068454692727        2.94898857354335
H           30.36991218421764       -7.03901452281835        3.48519642137097
H           32.58938418644328       -7.89197776882885       -0.08765810503098
H           32.64280767542280       -5.48437298013609       -0.62565200358710
H           28.90458219862433       -4.49231329411482        0.81889461365266
H           27.07297356168442       -2.56903930297350        0.40241145075934
H           27.16849788937598        2.61981796990355       -0.43682097937287
H           29.05519753889738        4.46083046197144       -0.87404708150705
H           30.94298394163415        0.74543469560784       -0.20179722507468
H           32.86296896360161        5.36320267762237        0.62130826461668
H           32.92393379092006        7.75815281507106        0.02927634135488
H           30.70955101376349        6.92404817364448       -3.55108073062659
H           30.66645559099246        4.52845248390229       -2.96257490205084
H           34.42185450688696        4.29082271960098       -1.17126819804511
H           36.24076087791266        2.37248102716222       -0.66756227073113
C           17.90602953343627       -0.00493867161085        0.02958610366466
C           19.13078541166603       -0.01080432698598        0.03695240113039
C           20.47292407279315       -0.00964162239959        0.04130614038503
C           21.70372709345774        0.00102323082215        0.04169599028998
C           23.04111546927672        0.00952080331393        0.04054686800589
C           24.27198787264149        0.01640598530859        0.03629079659859
C           25.61413262637454        0.01601722303682        0.02989003539498
C           26.83893592475381        0.00900138917723        0.02319248266220

          :  Hamiltonian                  GFN1-xTB          :
         :: total energy            -219.010636161189 Eh    ::
         :: gradient norm              0.000324746180 Eh/a0 ::
         :: HOMO-LUMO gap              1.029507690997 eV    ::
         :: SCC energy              -222.935000698628 Eh    ::
         :: repulsion energy           4.031024322667 Eh    ::

    * Orbital Energies and Occupations

         #    Occupation            Energy/Eh            Energy/eV
      -------------------------------------------------------------
         1        2.0000           -0.8154566             -22.1897
       ...           ...                  ...                  ...
       189        2.0000           -0.4329188             -11.7803
       190        2.0000           -0.4315006             -11.7417
       191        2.0000           -0.4307568             -11.7215
       192        2.0000           -0.4282229             -11.6525
       193        2.0000           -0.4281702             -11.6511
       194        2.0000           -0.4263801             -11.6024
       195        2.0000           -0.4263307             -11.6010
       196        2.0000           -0.4230078             -11.5106
       197        2.0000           -0.4165134             -11.3339
       198        2.0000           -0.4102280             -11.1629
       199        2.0000           -0.4099414             -11.1551
       200        2.0000           -0.3980905             -10.8326
       201        2.0000           -0.3899913             -10.6122 (HOMO)
       202                         -0.3521576              -9.5827 (LUMO)
       203                         -0.3445258              -9.3750
       204                         -0.3437894              -9.3550
       205                         -0.3419518              -9.3050
       206                         -0.3172089              -8.6317
       207                         -0.3128659              -8.5135
       208                         -0.3092984              -8.4164
       209                         -0.3039108              -8.2698
       210                         -0.3037622              -8.2658
       211                         -0.3024033              -8.2288
       212                         -0.2970549              -8.0833
       ...                                ...                  ...
       428                          1.5972639              43.4638
      -------------------------------------------------------------
                  HL-Gap            0.0378337 Eh            1.0295 eV

Wiberg/Mayer (AO) data.
largest (>0.10) Wiberg bond orders for each atom

     #   Z sym  total        # sym  WBO       # sym  WBO       # sym  WBO
 ---------------------------------------------------------------------------
     1   6 C    3.926 --    39 C    1.367     2 C    1.347    41 H    0.971
     2   6 C    3.901 --     1 C    1.347     3 C    1.229     6 N    1.169
     3   6 C    3.953 --     4 C    1.596     2 C    1.229    42 H    0.976
     4   6 C    3.959 --     3 C    1.596     5 C    1.234    43 H    0.974
     5   6 C    3.896 --     7 C    1.301     4 C    1.234     6 N    1.179
     6   7 N    3.470 --     5 C    1.179     2 C    1.169    44 H    0.873
     7   6 C    3.938 --    16 C    1.334     5 C    1.301     8 C    1.033
     8   6 C    3.963 --    15 C    1.385     9 C    1.384     7 C    1.033
     9   6 C    3.987 --    10 C    1.464     8 C    1.384    45 H    0.971
                            14 C    0.102
    10   6 C    3.993 --     9 C    1.464    11 C    1.363    46 H    0.972
                            15 C    0.102
    11   6 C    3.984 --    14 C    1.364    10 C    1.363    12 C    1.098
    12   6 C    3.958 --    13 N    2.819    11 C    1.098
    13   7 N    2.973 --    12 C    2.819
    14   6 C    3.993 --    15 C    1.464    11 C    1.364    47 H    0.972
                             9 C    0.102
    15   6 C    3.987 --    14 C    1.464     8 C    1.385    48 H    0.971
                            10 C    0.102
    16   6 C    3.914 --     7 C    1.334    19 N    1.286    17 C    1.124
    17   6 C    3.965 --    18 C    1.710    16 C    1.124    49 H    0.973
    18   6 C    3.963 --    17 C    1.710    20 C    1.128    50 H    0.974
    19   7 N    3.022 --    20 C    1.344    16 C    1.286
    20   6 C    3.906 --    19 N    1.344    21 C    1.253    18 C    1.128
    21   6 C    3.938 --    20 C    1.253    22 C    1.251   119 C    1.193
    22   6 C    3.883 --    21 C    1.251    23 C    1.249    26 N    1.189
    23   6 C    3.959 --    24 C    1.583    22 C    1.249    51 H    0.975
    24   6 C    3.954 --    23 C    1.583    25 C    1.241    52 H    0.974
    25   6 C    3.898 --    27 C    1.307    24 C    1.241    26 N    1.167
    26   7 N    3.474 --    22 C    1.189    25 C    1.167    53 H    0.873
    27   6 C    3.924 --    36 C    1.319    25 C    1.307    28 C    1.035
    28   6 C    3.963 --    35 C    1.384    29 C    1.383    27 C    1.035
    29   6 C    3.986 --    30 C    1.464    28 C    1.383    54 H    0.971
                            34 C    0.102
    30   6 C    3.993 --    29 C    1.464    31 C    1.363    55 H    0.972
                            35 C    0.102
    31   6 C    3.983 --    34 C    1.364    30 C    1.363    32 C    1.098
    32   6 C    3.958 --    33 N    2.819    31 C    1.098
    33   7 N    2.972 --    32 C    2.819
    34   6 C    3.993 --    35 C    1.464    31 C    1.364    56 H    0.972
                            29 C    0.102
    35   6 C    3.986 --    34 C    1.464    28 C    1.384    57 H    0.971
                            30 C    0.102
    36   6 C    3.928 --    27 C    1.319    40 N    1.318    37 C    1.117
    37   6 C    3.967 --    38 C    1.723    36 C    1.117    58 H    0.973
    38   6 C    3.966 --    37 C    1.723    39 C    1.116    59 H    0.976
    39   6 C    3.928 --     1 C    1.367    40 N    1.299    38 C    1.116
    40   7 N    3.012 --    36 C    1.318    39 C    1.299
    41   1 H    1.002 --     1 C    0.971
    42   1 H    0.997 --     3 C    0.976
    43   1 H    1.004 --     4 C    0.974
    44   1 H    0.986 --     6 N    0.873
    45   1 H    1.004 --     9 C    0.971
    46   1 H    1.000 --    10 C    0.972
    47   1 H    1.000 --    14 C    0.972
    48   1 H    1.003 --    15 C    0.971
    49   1 H    1.004 --    17 C    0.973
    50   1 H    1.002 --    18 C    0.974
    51   1 H    1.002 --    23 C    0.975
    52   1 H    1.004 --    24 C    0.974
    53   1 H    0.987 --    26 N    0.873
    54   1 H    1.004 --    29 C    0.971
    55   1 H    1.000 --    30 C    0.972
    56   1 H    1.000 --    34 C    0.972
    57   1 H    1.004 --    35 C    0.971
    58   1 H    1.004 --    37 C    0.973
    59   1 H    0.998 --    38 C    0.976
    60   6 C    3.926 --    98 C    1.367    61 C    1.347   100 H    0.971
    61   6 C    3.901 --    60 C    1.347    62 C    1.229    65 N    1.169
    62   6 C    3.953 --    63 C    1.596    61 C    1.229   101 H    0.976
    63   6 C    3.959 --    62 C    1.596    64 C    1.234   102 H    0.974
    64   6 C    3.896 --    66 C    1.301    63 C    1.234    65 N    1.179
    65   7 N    3.470 --    64 C    1.179    61 C    1.169   103 H    0.873
    66   6 C    3.938 --    75 C    1.334    64 C    1.301    67 C    1.033
    67   6 C    3.963 --    74 C    1.385    68 C    1.384    66 C    1.033
    68   6 C    3.988 --    69 C    1.464    67 C    1.384   104 H    0.971
                            73 C    0.102
    69   6 C    3.993 --    68 C    1.464    70 C    1.364   105 H    0.972
                            74 C    0.102
    70   6 C    3.984 --    73 C    1.364    69 C    1.364    71 C    1.098
    71   6 C    3.958 --    72 N    2.819    70 C    1.098
    72   7 N    2.973 --    71 C    2.819
    73   6 C    3.993 --    74 C    1.464    70 C    1.364   106 H    0.972
                            68 C    0.102
    74   6 C    3.987 --    73 C    1.464    67 C    1.385   107 H    0.971
                            69 C    0.102
    75   6 C    3.914 --    66 C    1.334    78 N    1.286    76 C    1.124
    76   6 C    3.965 --    77 C    1.710    75 C    1.124   108 H    0.973
    77   6 C    3.963 --    76 C    1.710    79 C    1.128   109 H    0.974
    78   7 N    3.022 --    79 C    1.344    75 C    1.286
    79   6 C    3.906 --    78 N    1.344    80 C    1.253    77 C    1.128
    80   6 C    3.938 --    79 C    1.253    81 C    1.251   126 C    1.193
    81   6 C    3.883 --    80 C    1.251    82 C    1.249    85 N    1.189
    82   6 C    3.959 --    83 C    1.583    81 C    1.249   110 H    0.975
    83   6 C    3.954 --    82 C    1.583    84 C    1.241   111 H    0.974
    84   6 C    3.898 --    86 C    1.307    83 C    1.241    85 N    1.167
    85   7 N    3.474 --    81 C    1.189    84 C    1.167   112 H    0.873
    86   6 C    3.924 --    95 C    1.319    84 C    1.307    87 C    1.035
    87   6 C    3.963 --    94 C    1.384    88 C    1.383    86 C    1.035
    88   6 C    3.986 --    89 C    1.464    87 C    1.383   113 H    0.971
                            93 C    0.102
    89   6 C    3.993 --    88 C    1.464    90 C    1.364   114 H    0.972
                            94 C    0.102
    90   6 C    3.983 --    89 C    1.364    93 C    1.363    91 C    1.098
    91   6 C    3.958 --    92 N    2.819    90 C    1.098
    92   7 N    2.972 --    91 C    2.819
    93   6 C    3.993 --    94 C    1.464    90 C    1.363   115 H    0.972
                            88 C    0.102
    94   6 C    3.986 --    93 C    1.464    87 C    1.384   116 H    0.971
                            89 C    0.102
    95   6 C    3.928 --    86 C    1.319    99 N    1.318    96 C    1.117
    96   6 C    3.967 --    97 C    1.723    95 C    1.117   117 H    0.973
    97   6 C    3.966 --    96 C    1.723    98 C    1.116   118 H    0.976
    98   6 C    3.928 --    60 C    1.367    99 N    1.299    97 C    1.116
    99   7 N    3.012 --    95 C    1.318    98 C    1.299
   100   1 H    1.002 --    60 C    0.971
   101   1 H    0.997 --    62 C    0.976
   102   1 H    1.004 --    63 C    0.974
   103   1 H    0.986 --    65 N    0.873
   104   1 H    1.004 --    68 C    0.971
   105   1 H    1.000 --    69 C    0.972
   106   1 H    1.000 --    73 C    0.972
   107   1 H    1.003 --    74 C    0.971
   108   1 H    1.004 --    76 C    0.973
   109   1 H    1.002 --    77 C    0.974
   110   1 H    1.002 --    82 C    0.975
   111   1 H    1.004 --    83 C    0.974
   112   1 H    0.987 --    85 N    0.873
   113   1 H    1.004 --    88 C    0.971
   114   1 H    1.000 --    89 C    0.972
   115   1 H    1.000 --    93 C    0.972
   116   1 H    1.004 --    94 C    0.971
   117   1 H    1.004 --    96 C    0.973
   118   1 H    0.998 --    97 C    0.976
   119   6 C    3.877 --   120 C    2.436    21 C    1.193   122 C    0.186
   120   6 C    3.932 --   119 C    2.436   121 C    1.346
   121   6 C    3.892 --   122 C    2.333   120 C    1.346   124 C    0.182
   122   6 C    3.924 --   121 C    2.333   123 C    1.371   119 C    0.186
   123   6 C    3.924 --   124 C    2.333   122 C    1.371   126 C    0.186
   124   6 C    3.892 --   123 C    2.333   125 C    1.346   121 C    0.182
   125   6 C    3.932 --   126 C    2.436   124 C    1.346
   126   6 C    3.877 --   125 C    2.436    80 C    1.193   123 C    0.186
 ---------------------------------------------------------------------------

           -------------------------------------------------
          | TOTAL ENERGY             -219.010636161189 Eh   |
          | GRADIENT NORM               0.000324746180 Eh/α |
          | HOMO-LUMO GAP               1.029507690997 eV   |
           -------------------------------------------------

 * finished run on 2022/07/27 at 22:25:29.171
