   * xtb version 6.5.1 (b24c23e) compiled by 'conda@728c89f4b128' on 2022-07-12
          program call               : xtb Co_m-CP_C4_3.xyz --gfn 1 --opt -T 48

   ID    Z sym.   atoms
    1   27 Co     1, 63, 133
    2    6 C      2-6, 8-12, 15-20, 22-27, 29-35, 38-42, 64-68, 70-74, 77-82,
                  84-89, 91-97, 100-104, 125-132, 134-138, 140-144, 147-152,
                  154-159, 161-167, 170-174
    3    7 N      7, 21, 28, 43, 69, 83, 90, 105, 139, 153, 160, 175
    4    8 O      13, 14, 36, 37, 75, 76, 98, 99, 145, 146, 168, 169
    5    1 H      44-62, 106-124, 176-193
########################################################################
[WARNING] Please study the warnings concerning your input carefully
-1- prog_main_parseArguments: Unknown option '-T' provided
########################################################################

          :  Hamiltonian                  GFN1-xTB          :
 * total energy  :  -366.0609512 Eh     change       -0.2441084E-08 Eh
 * total energy  :  -367.0320597 Eh     change       -0.9711086E+00 Eh
 * total energy  :  -367.2503359 Eh     change       -0.2182762E+00 Eh
 * total energy  :  -367.3856963 Eh     change       -0.1353604E+00 Eh
 * total energy  :  -367.4582737 Eh     change       -0.7257739E-01 Eh
 * total energy  :  -367.5132342 Eh     change       -0.5496049E-01 Eh
 * total energy  :  -367.5572552 Eh     change       -0.4402104E-01 Eh
 * total energy  :  -367.5889670 Eh     change       -0.3171181E-01 Eh
 * total energy  :  -367.6125854 Eh     change       -0.2361839E-01 Eh
 * total energy  :  -367.6328123 Eh     change       -0.2022687E-01 Eh
 * total energy  :  -367.8689101 Eh     change       -0.1460902E-04 Eh
 * total energy  :  -367.8689271 Eh     change       -0.1701564E-04 Eh
 * total energy  :  -367.8689260 Eh     change        0.1196025E-05 Eh
 * total energy  :  -367.8689345 Eh     change       -0.8582055E-05 Eh
 * total energy  :  -367.8689414 Eh     change       -0.6896742E-05 Eh
 * total energy  :  -367.8689331 Eh     change        0.8357583E-05 Eh
 * total energy  :  -367.8689481 Eh     change       -0.1507392E-04 Eh
 * total energy  :  -367.8689537 Eh     change       -0.5537510E-05 Eh
 * total energy  :  -367.8689585 Eh     change       -0.4790669E-05 Eh
   *** GEOMETRY OPTIMIZATION CONVERGED AFTER 128 ITERATIONS ***

 final structure:
================
193
 xtb: 6.5.1 (b24c23e)
Co          31.76637051777563        0.04920441303487       -0.21152123863505
C           28.40790204823420        0.01244349258039        0.04315984262939
C           29.03962479819992        1.22737290078732       -0.12037977568502
C           28.35981674049029        2.48121305519506       -0.23963719102018
C           29.31107767594792        3.44410924220595       -0.20486494811966
C           30.56967495774239        2.77715141583659       -0.03700074102808
N           30.39734794340173        1.41693799295616       -0.06491211431169
C           31.76432478516978        3.41632680476913        0.26983290346624
C           31.77032571362753        4.88438394736675        0.46103680883486
C           30.95229874018794        5.47972372199754        1.41738452459245
C           30.95904029119843        6.86294317781805        1.59169139434038
C           30.06164688902789        7.43726540871747        2.62584070818798
O           30.14605579438379        8.77151800478980        2.72746289143855
O           29.31985314992811        6.78848300674712        3.31810901005075
C           31.78813736579474        7.66297419310022        0.80558736590019
C           32.60463441684810        7.07269292689029       -0.14639922642906
C           32.59902587588398        5.69583084176962       -0.31819148954072
C           32.95101356797208        2.71355320120267        0.42283889295455
C           34.18981246763159        3.29576159076917        0.84357955696657
C           35.14049236524205        2.34075186659791        0.69738709301618
N           33.13381763240983        1.39198560593873        0.08825397772348
C           34.47994629785077        1.18008777394344        0.18966850589699
C           35.15243967019011        0.06114229970553       -0.31134505591608
C           34.46233018293069       -1.04985874930895       -0.80636699072947
C           35.09785823192026       -2.17629485033771       -1.41295282145332
C           34.13666448522930       -3.11482149712247       -1.59242787237240
C           32.92025253558099       -2.56466480848003       -1.07324633406050
N           33.12191654473494       -1.26678893150027       -0.66073488922923
C           31.75276939921481       -3.28642676554752       -0.87581492929864
C           31.73220598381793       -4.73366917445906       -1.18834442987869
C           32.62267534942127       -5.61044850819058       -0.56442776367640
C           32.59798649963874       -6.96755438284091       -0.85424962445640
C           31.68729542716008       -7.46600861146375       -1.77073676554486
C           30.79211192905156       -6.60004196636943       -2.40080936690349
C           29.83009504763757       -7.17257665336184       -3.37588949917951
O           29.00676632215039       -6.26205883739613       -3.91560974179451
O           29.77367646212922       -8.33930519838662       -3.66926068215587
C           30.81472992352915       -5.23821259583841       -2.10801517107778
C           30.59883784541318       -2.69107142542227       -0.37943801139118
C           29.39203544836362       -3.39842832230023       -0.06417847530677
C           28.45108552266760       -2.46448909999612        0.21134708447655
C           29.08392959886978       -1.18875437608407        0.06561139922806
N           30.41620047229510       -1.34158825883805       -0.22906407519780
H           27.32857400462620       -0.00030051270555        0.13770791907831
H           27.29126420950546        2.59048576663610       -0.33450648519516
H           29.18417856024423        4.51210097980194       -0.27648074991698
H           30.31287710532136        4.87292345231057        2.04914287062441
H           29.53265379551177        9.06720141331495        3.41974740413325
H           31.79028108219194        8.73772250500046        0.94094750157944
H           33.24981026243361        7.68864826760151       -0.76260353038254
H           33.23012216456978        5.24195917484248       -1.07411344635637
H           34.30554477914158        4.30448202852679        1.20549196665077
H           36.19792739600406        2.40526337464748        0.89740648484440
H           36.14608478693822       -2.22845884730422       -1.65964690442160
H           34.23319223035804       -4.09497702365167       -2.03029558168481
H           33.32590932567715       -5.22516464193464        0.16534024055393
H           33.29217137224314       -7.63660720107858       -0.35872880283059
H           31.65474040849551       -8.52323272988059       -2.00862248357945
H           28.41350493227123       -6.71334847807099       -4.53786962698958
H           30.12755641706946       -4.56600096917192       -2.60811295152163
H           29.29169806723806       -4.47170146437570       -0.05777820426463
H           27.41545270927645       -2.60599513492241        0.47635475189792
Co          58.41105055944367        0.12713522363791        0.04264011733136
C           61.73424909990297        0.01399915859759        0.55965183502733
C           61.13492478744565       -1.05607272860373       -0.07221497511762
C           61.84283516370979       -2.18582674714125       -0.59223849311187
C           60.90893060009395       -3.05741370254823       -1.04093486734389
C           59.62880516313115       -2.47844344904703       -0.75081271297791
N           59.78256394760810       -1.21845494866284       -0.22962363195137
C           58.42227456462517       -3.16335375497070       -0.81691541442491
C           58.41353707626117       -4.58288561226090       -1.23660917150033
C           59.17836602541268       -5.53175798397049       -0.56346599404714
C           59.17069520730571       -6.86513191906009       -0.97065889123440
C           60.01783538260793       -7.82541942535310       -0.21913600411145
O           59.94181831516399       -9.08211566867639       -0.68020673025911
O           60.71766057274502       -7.52776890674735        0.71469258788067
C           58.38960286807829       -7.26055650548352       -2.05640920953561
C           57.62140526086151       -6.31944269184889       -2.72399881112202
C           57.63099721161173       -4.99218698083190       -2.31962829265484
C           57.22273544942680       -2.56653950243638       -0.45203881386040
C           55.97805950405494       -3.26284573684238       -0.32463179202194
C           55.03128493511674       -2.32836459617821       -0.06443022410718
N           57.04416697266598       -1.22318474914699       -0.22320858513806
C           55.69753401737628       -1.06453463470700       -0.04890639906330
C           55.02819908809042        0.16242025179837       -0.06273870491894
C           55.72003900302109        1.37622584009772       -0.14038306526380
C           55.08717769687741        2.64016058333533       -0.34650120702521
C           56.05991950318362        3.58033539598999       -0.26425064783799
C           57.27834705407602        2.88809579523287        0.03288392530881
N           57.06494757952301        1.52710895499557        0.03291526384687
C           58.45327895187391        3.50461294065000        0.43379836416369
C           58.50222243597521        4.98019107005964        0.54998612122434
C           57.62510273638991        5.66246618042833        1.39598138551828
C           57.67991980952356        7.04517315103724        1.50397100752927
C           58.60775427645827        7.76347316225349        0.76865103785317
C           59.49190247220140        7.09274377202571       -0.07794302026443
C           60.47347135134989        7.89789138010943       -0.84776055363806
O           61.28275307242150        7.16077155236780       -1.62212994911194
O           60.55519389648317        9.09837877274609       -0.79741822643044
C           59.43986392334543        5.70465244404390       -0.18352895312095
C           59.58521331507606        2.77172111338440        0.77345274068908
C           60.76829119471940        3.33313357704332        1.35702883415207
C           61.67705852395597        2.33275261557657        1.44044821997841
C           61.05465702837444        1.16649925490663        0.89043389635762
N           59.75206345027843        1.43219863059046        0.54565286910215
H           62.79901964065358       -0.03191344617309        0.75516333738864
H           62.91703918515330       -2.27770825524854       -0.61204327047372
H           61.06115543205826       -4.01323878381956       -1.51518158185186
H           59.77604433791722       -5.24838881306717        0.29595673942994
H           60.52341295384341       -9.64344539733352       -0.14203596539499
H           58.38619207391524       -8.29675103727388       -2.37217655895899
H           57.01187609301173       -6.61957565977110       -3.56885991219106
H           57.03919715721201       -4.25854501485728       -2.85562646773558
H           55.85702264755092       -4.33030901963715       -0.41301757556468
H           53.97227649822457       -2.46424928824575        0.08528542802692
H           54.03454655604727        2.77437942276219       -0.53702913755137
H           55.96846270779101        4.64778496071923       -0.38204159512017
H           56.90885072444998        5.10136937961608        1.98566387105439
H           56.99529878903760        7.56084060599817        2.16772722359192
H           58.66325696487428        8.84379507165596        0.84062204177798
H           61.88953559956220        7.75739321348637       -2.08974321478420
H           60.12014418380899        5.18641718228904       -0.84900483981108
H           60.87308263720591        4.36056359103689        1.66605852472667
H           62.68789842571215        2.36719169212035        1.81429743623603
C           37.77538471266200        0.09470384549692       -0.40189757906146
C           36.55340694902259        0.07100291632345       -0.35219867141231
C           39.11983384284111        0.13741016027593       -0.47997364760295
C           40.33861786973305        0.19493606726933       -0.57033743335043
C           51.06093970816895        0.24006554457836       -0.21865479487740
C           49.84411903515516        0.27783935675384       -0.33929221276476
C           52.40475660421950        0.20940449734153       -0.12595692744872
C           53.62683816963932        0.17958697897950       -0.08174066742987
Co          45.09932690967492        0.39069897474060       -0.86254996246293
C           41.73108928571463        0.27343762933797       -0.69736531239349
C           42.40002510179394       -0.69044959763762       -1.46327771993329
C           41.73846379030618       -1.67764340025654       -2.25539014236003
C           42.70805338616950       -2.44849018236156       -2.80659338310959
C           43.95673413835505       -1.96171432541501       -2.30161993190807
N           43.75377854625967       -0.83130514135443       -1.54070338099911
C           45.16274398963447       -2.64050570170410       -2.39307157241933
C           45.23095534690211       -3.92794538318527       -3.12024246124340
C           44.42273707263536       -5.00300148893033       -2.76228907037713
C           44.50409643441169       -6.20947529250892       -3.45660740345008
C           43.61606643950336       -7.31945635213014       -3.02670717987274
O           43.77981034152393       -8.44277549158551       -3.73947916690885
O           42.81834198899448       -7.24149753603202       -2.12794676280573
C           45.39799919209178       -6.34747391062398       -4.51814120797416
C           46.20777835388668       -5.27981473891415       -4.87311156182282
C           46.12970916937122       -4.08095546995999       -4.17949150857207
C           46.31273918309039       -2.17786193087897       -1.76194012413802
C           47.51474813071048       -2.93812005079016       -1.60664735676836
C           48.41777440978628       -2.12366422340368       -1.00579720459363
N           46.46982475223175       -0.92122800333006       -1.23523735534581
C           47.77257432681220       -0.86195211956356       -0.82490492569578
C           48.45650419003718        0.32070640594528       -0.52373427240455
C           47.80642842772510        1.56188775980738       -0.52038287966822
C           48.48576588661471        2.81666916232363       -0.46233214455950
C           47.52849959096721        3.77595980430299       -0.41717576922745
C           46.26745785321033        3.09757821075531       -0.39465162329394
N           46.45488596766350        1.74047200107662       -0.53786918567141
C           45.05689272554170        3.69453119921054       -0.07463711502942
C           45.00754549314580        5.14589503986216        0.21346096563387
C           44.16394055645635        5.97495476618454       -0.53009942778049
C           44.10566361044114        7.33736207363053       -0.27337760854935
C           44.88204866289463        7.88788513919582        0.73272978552604
C           45.72162373915606        7.06852363946531        1.48870181837682
C           46.53136083353703        7.69624468208951        2.56373505360675
O           47.31001370912358        6.82841069902448        3.22529890879160
O           46.50875062938458        8.86989867569964        2.83223301505460
C           45.78376208069939        5.70110753125034        1.22855382605701
C           43.88578823999302        2.95492685679754        0.05102767523733
C           42.66473985183509        3.45670232073545        0.60259283588209
C           41.74860470485184        2.46235210183617        0.49367969246322
C           42.40630510550184        1.36967385193867       -0.14977581125242
N           43.72504588301086        1.65778610033766       -0.36590182959924
H           40.66977835146481       -1.75031303850363       -2.37719503075397
H           42.59470696974838       -3.28339744337164       -3.47843209987121
H           43.73605588019976       -4.92259022854952       -1.92679411532063
H           43.16825410773242       -9.11612106637620       -3.39944574060941
H           45.45719508991542       -7.28487645388121       -5.05774275147103
H           46.90577559729648       -5.38016777651895       -5.69651970057253
H           46.75968848391035       -3.24643626733883       -4.46652641025010
H           47.63684333655558       -3.96636249779265       -1.90622653191132
H           49.43823084306556       -2.33553921775922       -0.73009729602825
H           49.55745192617331        2.93395698728279       -0.46906505190869
H           47.65681051228796        4.84550978286075       -0.38477635358457
H           43.56222550828079        5.54571675433765       -1.32340927030189
H           43.45103775899484        7.96922705041272       -0.86267477023013
H           44.84817789022831        8.94998773756329        0.94761008098325
H           47.80158457301779        7.31325911926083        3.90814241856623
H           46.42150778675146        5.06526441893888        1.83105105296821
H           42.53885322007458        4.43797701272294        1.03056999843695
H           40.71284306261489        2.46449466120863        0.79275283499181

          :  Hamiltonian                  GFN1-xTB          :
         :: total energy            -367.868958475495 Eh    ::
         :: gradient norm              0.000591582862 Eh/a0 ::
         :: HOMO-LUMO gap              0.014034488897 eV    ::
         :: SCC energy              -373.235182790081 Eh    ::
         :: repulsion energy           5.540628876332 Eh    ::

    * Orbital Energies and Occupations

         #    Occupation            Energy/Eh            Energy/eV
      -------------------------------------------------------------
         1        2.0000           -0.8373058             -22.7843
       ...           ...                  ...                  ...
       316        2.0000           -0.4019296             -10.9371
       317        2.0000           -0.4012885             -10.9196
       318        2.0000           -0.4005069             -10.8983
       319        1.9999           -0.3986195             -10.8470
       320        1.9999           -0.3985751             -10.8458
       321        1.9998           -0.3979165             -10.8279
       322        1.9998           -0.3978156             -10.8251
       323        1.9998           -0.3977075             -10.8222
       324        1.9998           -0.3976601             -10.8209
       325        1.9997           -0.3975768             -10.8186
       326        1.8179           -0.3911983             -10.6450
       327        1.1515           -0.3891807             -10.5901
       328        1.1383           -0.3891525             -10.5894 (HOMO)
       329        0.8936           -0.3886367             -10.5753 (LUMO)
       330                         -0.3517556              -9.5718
       331                         -0.3400432              -9.2530
       332                         -0.3392612              -9.2318
       333                         -0.3359725              -9.1423
       334                         -0.3354248              -9.1274
       335                         -0.3315383              -9.0216
       336                         -0.3167995              -8.6206
       337                         -0.3151078              -8.5745
       338                         -0.3141939              -8.5497
       339                         -0.3135479              -8.5321
       ...                                ...                  ...
       675                          1.5046115              40.9426
      -------------------------------------------------------------
                  HL-Gap            0.0005158 Eh            0.0140 eV

Wiberg/Mayer (AO) data.
largest (>0.10) Wiberg bond orders for each atom

     #   Z sym  total        # sym  WBO       # sym  WBO       # sym  WBO
 ---------------------------------------------------------------------------
     1  27 Co   3.038 --    43 N    0.638     7 N    0.638    21 N    0.631
                            28 N    0.631
     2   6 C    3.926 --    42 C    1.367     3 C    1.363    44 H    0.970
     3   6 C    3.923 --     2 C    1.363     7 N    1.201     4 C    1.174
     4   6 C    3.959 --     5 C    1.649     3 C    1.174    45 H    0.975
     5   6 C    3.963 --     4 C    1.649     6 C    1.175    46 H    0.973
     6   6 C    3.921 --     8 C    1.319     7 N    1.212     5 C    1.175
     7   7 N    3.345 --     6 C    1.212     3 C    1.201     1 Co   0.638
     8   6 C    3.930 --    18 C    1.329     6 C    1.319     9 C    1.031
     9   6 C    3.988 --    10 C    1.406    17 C    1.386     8 C    1.031
                            15 C    0.102
    10   6 C    3.983 --     9 C    1.406    11 C    1.397    47 H    0.967
                            16 C    0.104
    11   6 C    3.988 --    10 C    1.397    15 C    1.391    12 C    1.004
    12   6 C    3.836 --    14 O    1.693    13 O    1.090    11 C    1.004
    13   8 O    2.099 --    12 C    1.090    48 H    0.838    14 O    0.129
    14   8 O    1.962 --    12 C    1.693    13 O    0.129
    15   6 C    3.986 --    16 C    1.447    11 C    1.391    49 H    0.970
                             9 C    0.102
    16   6 C    3.994 --    15 C    1.447    17 C    1.442    50 H    0.972
                            10 C    0.104
    17   6 C    3.985 --    16 C    1.442     9 C    1.386    51 H    0.972
    18   6 C    3.918 --     8 C    1.329    21 N    1.195    19 C    1.182
    19   6 C    3.958 --    20 C    1.636    18 C    1.182    52 H    0.973
    20   6 C    3.961 --    19 C    1.636    22 C    1.190    53 H    0.974
    21   7 N    3.345 --    22 C    1.230    18 C    1.195     1 Co   0.631
    22   6 C    3.903 --    23 C    1.257    21 N    1.230    20 C    1.190
    23   6 C    3.930 --    22 C    1.257    24 C    1.255   126 C    1.197
    24   6 C    3.903 --    23 C    1.255    28 N    1.234    25 C    1.190
    25   6 C    3.960 --    26 C    1.637    24 C    1.190    54 H    0.974
    26   6 C    3.957 --    25 C    1.637    27 C    1.180    55 H    0.973
    27   6 C    3.918 --    29 C    1.335    28 N    1.191    26 C    1.180
    28   7 N    3.344 --    24 C    1.234    27 C    1.191     1 Co   0.631
    29   6 C    3.929 --    27 C    1.335    39 C    1.313    30 C    1.031
    30   6 C    3.988 --    38 C    1.404    31 C    1.388    29 C    1.031
                            33 C    0.102
    31   6 C    3.987 --    32 C    1.440    30 C    1.388    56 H    0.972
    32   6 C    3.994 --    33 C    1.450    31 C    1.440    57 H    0.972
                            38 C    0.104
    33   6 C    3.985 --    32 C    1.450    34 C    1.387    58 H    0.969
                            30 C    0.102
    34   6 C    3.988 --    38 C    1.401    33 C    1.387    35 C    1.005
    35   6 C    3.836 --    37 O    1.693    36 O    1.090    34 C    1.005
    36   8 O    2.099 --    35 C    1.090    59 H    0.838    37 O    0.129
    37   8 O    1.961 --    35 C    1.693    36 O    0.129
    38   6 C    3.983 --    30 C    1.404    34 C    1.401    60 H    0.969
                            32 C    0.104
    39   6 C    3.920 --    29 C    1.313    43 N    1.216    40 C    1.176
    40   6 C    3.963 --    41 C    1.649    39 C    1.176    61 H    0.973
    41   6 C    3.959 --    40 C    1.649    42 C    1.174    62 H    0.975
    42   6 C    3.923 --     2 C    1.367    43 N    1.197    41 C    1.174
    43   7 N    3.345 --    39 C    1.216    42 C    1.197     1 Co   0.638
    44   1 H    1.000 --     2 C    0.970
    45   1 H    0.997 --     4 C    0.975
    46   1 H    1.003 --     5 C    0.973
    47   1 H    1.008 --    10 C    0.967
    48   1 H    0.872 --    13 O    0.838
    49   1 H    1.005 --    15 C    0.970
    50   1 H    1.002 --    16 C    0.972
    51   1 H    1.005 --    17 C    0.972
    52   1 H    1.003 --    19 C    0.973
    53   1 H    1.001 --    20 C    0.974
    54   1 H    1.001 --    25 C    0.974
    55   1 H    1.003 --    26 C    0.973
    56   1 H    1.005 --    31 C    0.972
    57   1 H    1.001 --    32 C    0.972
    58   1 H    1.005 --    33 C    0.969
    59   1 H    0.873 --    36 O    0.838
    60   1 H    1.008 --    38 C    0.969
    61   1 H    1.003 --    40 C    0.973
    62   1 H    0.997 --    41 C    0.975
    63  27 Co   3.031 --    69 N    0.637   105 N    0.636    83 N    0.630
                            90 N    0.629
    64   6 C    3.926 --   104 C    1.370    65 C    1.359   106 H    0.970
    65   6 C    3.923 --    64 C    1.359    69 N    1.205    66 C    1.175
    66   6 C    3.959 --    67 C    1.649    65 C    1.175   107 H    0.975
    67   6 C    3.963 --    66 C    1.649    68 C    1.174   108 H    0.972
    68   6 C    3.921 --    70 C    1.322    69 N    1.209    67 C    1.174
    69   7 N    3.345 --    68 C    1.209    65 C    1.205    63 Co   0.637
    70   6 C    3.930 --    80 C    1.324    68 C    1.322    71 C    1.032
    71   6 C    3.988 --    72 C    1.406    79 C    1.385    70 C    1.032
                            77 C    0.102
    72   6 C    3.983 --    71 C    1.406    73 C    1.397   109 H    0.967
                            78 C    0.103
    73   6 C    3.988 --    72 C    1.397    77 C    1.391    74 C    1.004
    74   6 C    3.836 --    76 O    1.693    75 O    1.090    73 C    1.004
    75   8 O    2.099 --    74 C    1.090   110 H    0.838    76 O    0.129
    76   8 O    1.962 --    74 C    1.693    75 O    0.129
    77   6 C    3.986 --    78 C    1.447    73 C    1.391   111 H    0.970
                            71 C    0.102
    78   6 C    3.994 --    77 C    1.447    79 C    1.442   112 H    0.972
                            72 C    0.103
    79   6 C    3.985 --    78 C    1.442    71 C    1.385   113 H    0.972
    80   6 C    3.918 --    70 C    1.324    83 N    1.199    81 C    1.183
    81   6 C    3.958 --    82 C    1.636    80 C    1.183   114 H    0.973
    82   6 C    3.961 --    81 C    1.636    84 C    1.190   115 H    0.974
    83   7 N    3.345 --    84 C    1.228    80 C    1.199    63 Co   0.630
    84   6 C    3.903 --    85 C    1.260    83 N    1.228    82 C    1.190
    85   6 C    3.930 --    84 C    1.260    86 C    1.251   132 C    1.197
    86   6 C    3.903 --    85 C    1.251    90 N    1.239    87 C    1.191
    87   6 C    3.960 --    88 C    1.636    86 C    1.191   116 H    0.974
    88   6 C    3.957 --    87 C    1.636    89 C    1.180   117 H    0.973
    89   6 C    3.918 --    91 C    1.338    90 N    1.188    88 C    1.180
    90   7 N    3.344 --    86 C    1.239    89 C    1.188    63 Co   0.629
    91   6 C    3.929 --    89 C    1.338   101 C    1.310    92 C    1.030
    92   6 C    3.988 --   100 C    1.404    93 C    1.388    91 C    1.030
                            95 C    0.102
    93   6 C    3.987 --    94 C    1.440    92 C    1.388   118 H    0.972
    94   6 C    3.994 --    95 C    1.451    93 C    1.440   119 H    0.972
                           100 C    0.104
    95   6 C    3.985 --    94 C    1.451    96 C    1.387   120 H    0.969
                            92 C    0.102
    96   6 C    3.988 --   100 C    1.401    95 C    1.387    97 C    1.004
    97   6 C    3.836 --    99 O    1.693    98 O    1.090    96 C    1.004
    98   8 O    2.099 --    97 C    1.090   121 H    0.838    99 O    0.129
    99   8 O    1.961 --    97 C    1.693    98 O    0.129
   100   6 C    3.983 --    92 C    1.404    96 C    1.401   122 H    0.969
                            94 C    0.104
   101   6 C    3.920 --    91 C    1.310   105 N    1.220   102 C    1.177
   102   6 C    3.964 --   103 C    1.649   101 C    1.177   123 H    0.973
   103   6 C    3.959 --   102 C    1.649   104 C    1.173   124 H    0.975
   104   6 C    3.923 --    64 C    1.370   105 N    1.195   103 C    1.173
   105   7 N    3.346 --   101 C    1.220   104 C    1.195    63 Co   0.636
   106   1 H    1.000 --    64 C    0.970
   107   1 H    0.997 --    66 C    0.975
   108   1 H    1.003 --    67 C    0.972
   109   1 H    1.008 --    72 C    0.967
   110   1 H    0.873 --    75 O    0.838
   111   1 H    1.005 --    77 C    0.970
   112   1 H    1.002 --    78 C    0.972
   113   1 H    1.005 --    79 C    0.972
   114   1 H    1.003 --    81 C    0.973
   115   1 H    1.001 --    82 C    0.974
   116   1 H    1.001 --    87 C    0.974
   117   1 H    1.003 --    88 C    0.973
   118   1 H    1.005 --    93 C    0.972
   119   1 H    1.001 --    94 C    0.972
   120   1 H    1.005 --    95 C    0.969
   121   1 H    0.873 --    98 O    0.838
   122   1 H    1.007 --   100 C    0.969
   123   1 H    1.003 --   102 C    0.973
   124   1 H    0.997 --   103 C    0.975
   125   6 C    3.930 --   126 C    2.459   127 C    1.321
   126   6 C    3.915 --   125 C    2.459    23 C    1.197   128 C    0.197
   127   6 C    3.923 --   128 C    2.455   125 C    1.321
   128   6 C    3.922 --   127 C    2.455   134 C    1.203   126 C    0.197
   129   6 C    3.923 --   130 C    2.456   131 C    1.320
   130   6 C    3.922 --   129 C    2.456   155 C    1.202   132 C    0.197
   131   6 C    3.929 --   132 C    2.459   129 C    1.320
   132   6 C    3.915 --   131 C    2.459    85 C    1.197   130 C    0.197
   133  27 Co   3.069 --   139 N    0.630   160 N    0.629   175 N    0.626
                           153 N    0.626
   134   6 C    3.919 --   174 C    1.256   135 C    1.244   128 C    1.203
   135   6 C    3.905 --   139 N    1.245   134 C    1.244   136 C    1.192
   136   6 C    3.960 --   137 C    1.635   135 C    1.192   176 H    0.974
   137   6 C    3.959 --   136 C    1.635   138 C    1.181   177 H    0.972
   138   6 C    3.916 --   140 C    1.335   139 N    1.188   137 C    1.181
   139   7 N    3.339 --   135 C    1.245   138 C    1.188   133 Co   0.630
   140   6 C    3.927 --   138 C    1.335   150 C    1.309   141 C    1.032
   141   6 C    3.988 --   142 C    1.407   149 C    1.384   140 C    1.032
                           147 C    0.102
   142   6 C    3.983 --   141 C    1.407   143 C    1.396   178 H    0.967
                           148 C    0.104
   143   6 C    3.988 --   142 C    1.396   147 C    1.392   144 C    1.004
                           149 C    0.100
   144   6 C    3.836 --   146 O    1.693   145 O    1.091   143 C    1.004
   145   8 O    2.099 --   144 C    1.091   179 H    0.837   146 O    0.129
   146   8 O    1.962 --   144 C    1.693   145 O    0.129
   147   6 C    3.986 --   148 C    1.446   143 C    1.392   180 H    0.970
                           141 C    0.102
   148   6 C    3.994 --   147 C    1.446   149 C    1.443   181 H    0.972
                           142 C    0.104
   149   6 C    3.985 --   148 C    1.443   141 C    1.384   182 H    0.973
                           143 C    0.100
   150   6 C    3.915 --   140 C    1.309   153 N    1.208   151 C    1.187
   151   6 C    3.960 --   152 C    1.631   150 C    1.187   183 H    0.974
   152   6 C    3.959 --   151 C    1.631   154 C    1.192   184 H    0.974
   153   7 N    3.340 --   154 C    1.227   150 C    1.208   133 Co   0.626
   154   6 C    3.904 --   155 C    1.256   153 N    1.227   152 C    1.192
   155   6 C    3.919 --   154 C    1.256   156 C    1.244   130 C    1.202
   156   6 C    3.906 --   160 N    1.244   155 C    1.244   157 C    1.193
   157   6 C    3.960 --   158 C    1.633   156 C    1.193   185 H    0.974
   158   6 C    3.959 --   157 C    1.633   159 C    1.182   186 H    0.972
   159   6 C    3.917 --   161 C    1.333   160 N    1.189   158 C    1.182
   160   7 N    3.338 --   156 C    1.244   159 C    1.189   133 Co   0.629
   161   6 C    3.927 --   159 C    1.333   171 C    1.311   162 C    1.031
   162   6 C    3.988 --   170 C    1.404   163 C    1.387   161 C    1.031
                           165 C    0.102
   163   6 C    3.985 --   164 C    1.441   162 C    1.387   187 H    0.973
                           166 C    0.100
   164   6 C    3.994 --   165 C    1.449   163 C    1.441   188 H    0.972
                           170 C    0.104
   165   6 C    3.985 --   164 C    1.449   166 C    1.388   189 H    0.969
                           162 C    0.102
   166   6 C    3.988 --   170 C    1.400   165 C    1.388   167 C    1.004
                           163 C    0.100
   167   6 C    3.836 --   169 O    1.694   168 O    1.091   166 C    1.004
   168   8 O    2.099 --   167 C    1.091   190 H    0.837   169 O    0.129
   169   8 O    1.962 --   167 C    1.694   168 O    0.129
   170   6 C    3.984 --   162 C    1.404   166 C    1.400   191 H    0.968
                           164 C    0.104
   171   6 C    3.916 --   161 C    1.311   175 N    1.207   172 C    1.187
   172   6 C    3.960 --   173 C    1.631   171 C    1.187   192 H    0.974
   173   6 C    3.960 --   172 C    1.631   174 C    1.192   193 H    0.974
   174   6 C    3.904 --   134 C    1.256   175 N    1.228   173 C    1.192
   175   7 N    3.340 --   174 C    1.228   171 C    1.207   133 Co   0.626
   176   1 H    1.001 --   136 C    0.974
   177   1 H    1.003 --   137 C    0.972
   178   1 H    1.008 --   142 C    0.967
   179   1 H    0.872 --   145 O    0.837
   180   1 H    1.005 --   147 C    0.970
   181   1 H    1.001 --   148 C    0.972
   182   1 H    1.004 --   149 C    0.973
   183   1 H    1.003 --   151 C    0.974
   184   1 H    1.001 --   152 C    0.974
   185   1 H    1.001 --   157 C    0.974
   186   1 H    1.003 --   158 C    0.972
   187   1 H    1.004 --   163 C    0.973
   188   1 H    1.001 --   164 C    0.972
   189   1 H    1.005 --   165 C    0.969
   190   1 H    0.872 --   168 O    0.837
   191   1 H    1.008 --   170 C    0.968
   192   1 H    1.003 --   172 C    0.974
   193   1 H    1.001 --   173 C    0.974
 ---------------------------------------------------------------------------

           -------------------------------------------------
          | TOTAL ENERGY             -367.868958475495 Eh   |
          | GRADIENT NORM               0.000591582862 Eh/α |
          | HOMO-LUMO GAP               0.014034488897 eV   |
           -------------------------------------------------

 * finished run on 2022/07/29 at 23:31:07.562
