   * xtb version 6.5.1 (b24c23e) compiled by 'conda@728c89f4b128' on 2022-07-12
          program call               : xtb Fe_NMA_C8_2.xyz --gfn 1 --opt -T 48

   ID    Z sym.   atoms
    1   26 Fe     1, 67
    2    6 C      2-6, 8-12, 14-19, 21-26, 28-32, 34-40, 68-72, 74-78, 80-85,
                  87-92, 94-98, 100-106, 133-140
    3    7 N      7, 13, 20, 27, 33, 41, 73, 79, 86, 93, 99, 107
    4    1 H      42-66, 108-132
########################################################################
[WARNING] Please study the warnings concerning your input carefully
-1- prog_main_parseArguments: Unknown option '-T' provided
########################################################################

          :  Hamiltonian                  GFN1-xTB          :
 * total energy  :  -215.8911064 Eh     change        0.1426429E-08 Eh
 * total energy  :  -227.9982998 Eh     change       -0.1210719E+02 Eh
 * total energy  :  -229.4078205 Eh     change       -0.1409521E+01 Eh
 * total energy  :  -230.1521672 Eh     change       -0.7443466E+00 Eh
 * total energy  :  -230.5614093 Eh     change       -0.4092421E+00 Eh
 * total energy  :  -230.7651086 Eh     change       -0.2036993E+00 Eh
 * total energy  :  -230.8897522 Eh     change       -0.1246436E+00 Eh
 * total energy  :  -230.9790510 Eh     change       -0.8929889E-01 Eh
 * total energy  :  -231.0475704 Eh     change       -0.6851937E-01 Eh
 * total energy  :  -231.1285213 Eh     change       -0.8095090E-01 Eh
 * total energy  :  -231.7589243 Eh     change       -0.2054322E-04 Eh
 * total energy  :  -231.7589455 Eh     change       -0.2120007E-04 Eh
 * total energy  :  -231.7589655 Eh     change       -0.1998599E-04 Eh
 * total energy  :  -231.7589824 Eh     change       -0.1690006E-04 Eh
 * total energy  :  -231.7589972 Eh     change       -0.1475667E-04 Eh
 * total energy  :  -231.7590109 Eh     change       -0.1368206E-04 Eh
 * total energy  :  -231.7590225 Eh     change       -0.1163240E-04 Eh
 * total energy  :  -231.7590306 Eh     change       -0.8091592E-05 Eh
 * total energy  :  -231.7590354 Eh     change       -0.4826425E-05 Eh
   *** GEOMETRY OPTIMIZATION CONVERGED AFTER 85 ITERATIONS ***

 final structure:
================
140
 xtb: 6.5.1 (b24c23e)
Fe          15.06234480470601        0.05615303727914       -0.03451105899473
C           11.68208805057969        0.13190524473573       -0.11215832443304
C           12.32206333700824        0.91111517103919        0.83031726385130
C           11.63970177001316        1.72356594767098        1.79092157247009
C           12.59149053842862        2.42623423065364        2.45081622137057
C           13.85337244906438        2.05526792547685        1.87876017891913
N           13.67800132855418        1.08660991445996        0.92798278848776
C           15.06680656127698        2.65794141236522        2.20165822382624
C           15.07261852953333        3.78423970132272        3.15892259955905
C           14.31679424925141        4.93583156890838        2.91844586714213
C           14.32876587348423        5.98866097327965        3.81285889173940
C           15.08693568428661        5.91593595005727        4.98857860650814
N           15.10222274852954        7.01423451456668        5.83282653949310
C           15.45875939750892        6.84749539852823        7.23501053127033
C           15.84871586753848        4.76879870937646        5.23173906388385
C           15.84000978391853        3.72387731188779        4.32445329943743
C           16.27405214926871        2.24512006496226        1.65036401994946
C           17.52878169366672        2.89578977625197        1.88315081990085
C           18.47839429167584        2.14639471201823        1.27113772012674
N           16.45462006963586        1.13517471080263        0.86094568946198
C           17.80052698988008        1.04655588631614        0.66132627145436
C           18.46289701653011       -0.02204994814199        0.04358457620970
C           17.78407738214476       -1.07841555728590       -0.57768396995296
C           18.44307175306968       -2.21163455510227       -1.14557397889996
C           17.48568925952681       -2.94983963719732       -1.75886922952456
C           16.24686377375055       -2.25319375954409       -1.57841436752460
N           16.44026252256965       -1.13677714984917       -0.79987567155725
C           15.04892197479202       -2.62267565871565       -2.17808465541699
C           15.04511869980445       -3.76322227830347       -3.11784652996409
C           15.87844503310088       -3.76703249033805       -4.23899213852971
C           15.87632264937912       -4.82566976311043       -5.13017492009998
C           15.03422138603304       -5.92146977256458       -4.91664333597921
N           15.03071145998731       -7.03158143187426       -5.74509986475895
C           15.48531414716236       -6.91064041214693       -7.12346572885620
C           14.20711932009357       -5.92963148163728       -3.78593787808583
C           14.20837859848669       -4.86378158954711       -2.90709029730626
C           13.85363322070364       -1.94885318640298       -1.93575746346359
C           12.61172684375437       -2.24908071134492       -2.58710253572484
C           11.66511369259428       -1.47502514881844       -2.00370628005609
C           12.33195521162288       -0.69339133862574       -1.00744235122730
N           13.67599857706227       -0.96275569027560       -1.00451723266101
H           10.59894069650655        0.16732739264318       -0.14867941361707
H           10.57013449354386        1.74065352257152        1.92904156270376
H           12.46151517217755        3.13127352842462        3.25587166559852
H           13.73435997523495        5.01221101431465        2.00678359731599
H           13.74905271950894        6.88236168330627        3.60709698625111
H           14.30232342745110        7.62190172806170        5.70481980806682
H           16.51603631273432        6.59495837034982        7.32478280646295
H           14.85907839882918        6.06420451652108        7.71247645002596
H           15.28243417322729        7.79592774860735        7.74237707872299
H           16.45080583645143        4.68606222123494        6.12820005022445
H           16.42083815761263        2.83201980761582        4.53334077278913
H           17.65695489560512        3.81333704599661        2.43398679665393
H           19.54315298619835        2.31081660291401        1.22953597578331
H           19.50119139780247       -2.40598578442297       -1.07415117978177
H           17.59960713347851       -3.88511195150044       -2.28225325955527
H           16.52096502297397       -2.91378918242355       -4.42754912027547
H           16.53202851358734       -4.79320917590128       -5.99157534656016
H           14.18760141332393       -7.58605181924095       -5.66019531257036
H           14.97349287610264       -6.09455816738658       -7.64625298446722
H           15.27497629113133       -7.85182073539196       -7.63133005760408
H           16.56141488592064       -6.73348292516908       -7.14809909936002
H           13.56289094083680       -6.78323555203070       -3.60307196213192
H           13.57101896058782       -4.89015392695477       -2.03002773574483
H           12.49124712058839       -2.95698850917824       -3.39114557447556
H           10.60892224853932       -1.42450557501654       -2.21639647190497
Fe          33.59476480332496        0.01946400359266       -0.06355150951493
C           36.97478443122981        0.08525211778254       -0.15687345437579
C           36.33662766459426       -1.00583166622046       -0.71123187795424
C           37.02090597600615       -2.11928466800425       -1.29466254111777
C           36.07030137392049       -2.91945308262708       -1.83428527245579
C           34.80722325946700       -2.28300335634452       -1.59603600783692
N           34.98082032603409       -1.14282909115648       -0.85919904513713
C           33.59432163482620       -2.73250731227791       -2.11249764619375
C           33.59015967208081       -3.91242123366440       -3.00277349854076
C           34.34634180233036       -3.92766802954275       -4.17891033488069
C           34.33529528282629       -5.02955553233848       -5.01209610963579
C           33.57742934699646       -6.16168906921404       -4.68591095363600
N           33.56261250175398       -7.22408513676343       -5.57481756150543
C           33.20281643865984       -8.55624653335117       -5.10910758553222
C           32.81547704989778       -6.15016250705492       -3.51344259758932
C           32.82348294417783       -5.03749564747120       -2.69061919129360
C           32.38612107223524       -2.10612347982311       -1.83013916519990
C           31.13204327639228       -2.47730520279306       -2.41443295225436
C           30.18143828438902       -1.71640834505182       -1.81840010909761
N           32.20412526006412       -1.09260366187494       -0.92053066345728
C           30.85801271963034       -0.87940968996582       -0.87889901838065
C           30.19424106351292       -0.04259938696746        0.02745029587564
C           30.87157749862971        0.79511412130992        0.92301340696120
C           30.21092124857454        1.59649779113742        1.90399474823651
C           31.16729738015522        2.35610363889769        2.49220591003957
C           32.40713838795796        2.02826479768668        1.85352174086849
N           32.21531513097482        1.02495976351447        0.93345283725608
C           33.60445585942942        2.69461024890154        2.08486194490127
C           33.60649752070877        3.86062629387838        2.99296670929573
C           32.77438396866316        4.95591268972845        2.74943037618342
C           32.77503227734956        6.05702074141309        3.58756899885734
C           33.61416274465785        6.08765608988156        4.70577809499548
N           33.61583676998924        7.13889512710830        5.60787747379390
C           33.16678677639118        8.45850492553746        5.18577654005096
C           34.43986387383561        4.98557485382468        4.96315030922344
C           34.44036097803838        3.89502369346462        4.11508672887917
C           34.80044008236253        2.31270849588929        1.48057236167064
C           36.04136790558136        3.01543360767191        1.63223055337169
C           36.98874409696507        2.27994206162170        1.00208510417800
C           36.32341057244313        1.13696424313277        0.45512107414557
N           34.97946969024047        1.19007099485015        0.71980437454665
H           38.05781952149478        0.11557835884601       -0.20067798811179
H           38.09082737224883       -2.25516430137850       -1.28262532265404
H           36.20186896321096       -3.85916468647524       -2.34586728993791
H           34.92813048384909       -3.05397798827842       -4.45162857488703
H           34.91524197590064       -5.02263118867433       -5.92899988102993
H           34.36333830896464       -7.23186900450628       -6.19468220721422
H           32.14500330650576       -8.58718196004844       -4.84497400226149
H           33.80042368533461       -8.85400756795486       -4.24000028737141
H           33.37920689394861       -9.25721758323339       -5.92491725919649
H           32.21374866296195       -7.00750974232944       -3.23797447046646
H           32.24252758222279       -5.04797727537151       -1.77476481790493
H           31.00485999275470       -3.21626973445227       -3.18869388739591
H           29.11681026074302       -1.71285390425578       -1.98872808024111
H           29.15245924200629        1.56900702636364        2.10747900946826
H           31.05214710419347        3.07091906587320        3.29059958988025
H           32.13406070352461        4.95360794178179        1.87399607503814
H           32.12045561128353        6.89092135690602        3.36585649920146
H           34.45673150601701        7.17550136917931        6.17094499350299
H           33.68384711448612        8.78836398884206        4.27742940458324
H           33.37522609895414        9.15965916046286        5.99383212000359
H           32.09152272278941        8.44673697440642        5.00240260100679
H           35.08175928462285        4.99336327215280        5.83780536740612
H           35.07691527776749        3.04470861010045        4.33401577769234
H           36.16063336484858        3.95369964939878        2.14950225162546
H           38.04455590463223        2.47835417713195        0.90602012109786
C           19.86266925971846       -0.03708786711370        0.05042999374517
C           21.08907049422157       -0.04648267426498        0.04989102415057
C           22.42847385316782       -0.05346579824622        0.05068672666605
C           23.66116715223825       -0.05510588905971        0.04815622893222
C           24.99586000953170       -0.05584284078942        0.04826192181894
C           26.22858319575887       -0.05304767417379        0.04775271629554
C           27.56800139356557       -0.05030472585830        0.04365180047520
C           28.79444900923948       -0.04736269241251        0.04164739363145

          :  Hamiltonian                  GFN1-xTB          :
         :: total energy            -231.759035422001 Eh    ::
         :: gradient norm              0.000329644977 Eh/a0 ::
         :: HOMO-LUMO gap              0.083754950392 eV    ::
         :: SCC energy              -235.529453534253 Eh    ::
         :: repulsion energy           3.888768133742 Eh    ::

    * Orbital Energies and Occupations

         #    Occupation            Energy/Eh            Energy/eV
      -------------------------------------------------------------
         1        2.0000           -0.7802395             -21.2314
       ...           ...                  ...                  ...
       203        2.0000           -0.3935925             -10.7102
       204        2.0000           -0.3918374             -10.6624
       205        2.0000           -0.3918369             -10.6624
       206        2.0000           -0.3874323             -10.5426
       207        2.0000           -0.3874232             -10.5423
       208        1.9995           -0.3806083             -10.3569
       209        1.9923           -0.3780472             -10.2872
       210        1.9921           -0.3780210             -10.2865
       211        1.9568           -0.3763879             -10.2420
       212        1.9560           -0.3763710             -10.2416
       213        1.9514           -0.3762735             -10.2389
       214        1.9514           -0.3762732             -10.2389
       215        1.6440           -0.3742194             -10.1830 (HOMO)
       216        0.3064           -0.3711414             -10.0993 (LUMO)
       217        0.2501           -0.3709176             -10.0932
       218                         -0.3310399              -9.0081
       219                         -0.3200141              -8.7080
       220                         -0.3176758              -8.6444
       221                         -0.3176685              -8.6442
       222                         -0.2966997              -8.0736
       223                         -0.2946283              -8.0172
       224                         -0.2893316              -7.8731
       225                         -0.2892366              -7.8705
       226                         -0.2846615              -7.7460
       ...                                ...                  ...
       470                          1.6077461              43.7490
      -------------------------------------------------------------
                  HL-Gap            0.0030779 Eh            0.0838 eV

Wiberg/Mayer (AO) data.
largest (>0.10) Wiberg bond orders for each atom

     #   Z sym  total        # sym  WBO       # sym  WBO       # sym  WBO
 ---------------------------------------------------------------------------
     1  26 Fe   3.151 --     7 N    0.670    27 N    0.663    41 N    0.663
                            20 N    0.657
     2   6 C    3.922 --     3 C    1.362    40 C    1.362    42 H    0.970
     3   6 C    3.926 --     2 C    1.362     7 N    1.208     4 C    1.176
     4   6 C    3.957 --     5 C    1.645     3 C    1.176    43 H    0.975
     5   6 C    3.962 --     4 C    1.645     6 C    1.178    44 H    0.973
     6   6 C    3.919 --     8 C    1.307     7 N    1.227     5 C    1.178
     7   7 N    3.379 --     6 C    1.227     3 C    1.208     1 Fe   0.670
     8   6 C    3.925 --    17 C    1.326     6 C    1.307     9 C    1.041
     9   6 C    3.984 --    16 C    1.379    10 C    1.370     8 C    1.041
    10   6 C    3.986 --    11 C    1.479     9 C    1.370    45 H    0.972
    11   6 C    3.987 --    10 C    1.479    12 C    1.342    46 H    0.971
    12   6 C    3.949 --    15 C    1.350    11 C    1.342    13 N    1.114
    13   7 N    3.180 --    12 C    1.114    14 C    0.971    47 H    0.930
    14   6 C    3.967 --    50 H    0.990    48 H    0.986    49 H    0.983
                            13 N    0.971
    15   6 C    3.987 --    16 C    1.468    12 C    1.350    51 H    0.970
    16   6 C    3.984 --    15 C    1.468     9 C    1.379    52 H    0.972
    17   6 C    3.916 --     8 C    1.326    20 N    1.203    18 C    1.183
    18   6 C    3.958 --    19 C    1.633    17 C    1.183    53 H    0.973
    19   6 C    3.960 --    18 C    1.633    21 C    1.191    54 H    0.974
    20   7 N    3.376 --    21 C    1.243    17 C    1.203     1 Fe   0.657
    21   6 C    3.905 --    22 C    1.249    20 N    1.243    19 C    1.191
    22   6 C    3.922 --    21 C    1.249    23 C    1.248   133 C    1.206
    23   6 C    3.904 --    22 C    1.248    27 N    1.245    24 C    1.191
    24   6 C    3.958 --    25 C    1.633    23 C    1.191    55 H    0.974
    25   6 C    3.958 --    24 C    1.633    26 C    1.182    56 H    0.973
    26   6 C    3.916 --    28 C    1.328    27 N    1.201    25 C    1.182
    27   7 N    3.379 --    23 C    1.245    26 C    1.201     1 Fe   0.663
    28   6 C    3.925 --    26 C    1.328    37 C    1.305    29 C    1.042
    29   6 C    3.984 --    30 C    1.379    36 C    1.369    28 C    1.042
    30   6 C    3.986 --    31 C    1.468    29 C    1.379    57 H    0.972
    31   6 C    3.987 --    30 C    1.468    32 C    1.350    58 H    0.970
    32   6 C    3.949 --    31 C    1.350    35 C    1.341    33 N    1.114
    33   7 N    3.181 --    32 C    1.114    34 C    0.971    59 H    0.930
    34   6 C    3.967 --    61 H    0.990    62 H    0.986    60 H    0.983
                            33 N    0.971
    35   6 C    3.987 --    36 C    1.480    32 C    1.341    63 H    0.971
    36   6 C    3.984 --    35 C    1.480    29 C    1.369    64 H    0.972
    37   6 C    3.919 --    28 C    1.305    41 N    1.228    38 C    1.179
    38   6 C    3.962 --    39 C    1.644    37 C    1.179    65 H    0.973
    39   6 C    3.959 --    38 C    1.644    40 C    1.176    66 H    0.975
    40   6 C    3.926 --     2 C    1.362    41 N    1.207    39 C    1.176
    41   7 N    3.375 --    37 C    1.228    40 C    1.207     1 Fe   0.663
    42   1 H    1.001 --     2 C    0.970
    43   1 H    0.998 --     4 C    0.975
    44   1 H    1.005 --     5 C    0.973
    45   1 H    1.005 --    10 C    0.972
    46   1 H    0.999 --    11 C    0.971
    47   1 H    0.965 --    13 N    0.930
    48   1 H    1.011 --    14 C    0.986
    49   1 H    1.003 --    14 C    0.983
    50   1 H    1.007 --    14 C    0.990
    51   1 H    1.001 --    15 C    0.970
    52   1 H    1.005 --    16 C    0.972
    53   1 H    1.005 --    18 C    0.973
    54   1 H    1.002 --    19 C    0.974
    55   1 H    1.002 --    24 C    0.974
    56   1 H    1.005 --    25 C    0.973
    57   1 H    1.006 --    30 C    0.972
    58   1 H    1.001 --    31 C    0.970
    59   1 H    0.965 --    33 N    0.930
    60   1 H    1.003 --    34 C    0.983
    61   1 H    1.007 --    34 C    0.990
    62   1 H    1.011 --    34 C    0.986
    63   1 H    0.999 --    35 C    0.971
    64   1 H    1.005 --    36 C    0.972
    65   1 H    1.005 --    38 C    0.973
    66   1 H    0.998 --    39 C    0.975
    67  26 Fe   3.152 --    73 N    0.670    93 N    0.663   107 N    0.663
                            86 N    0.657
    68   6 C    3.922 --    69 C    1.362   106 C    1.362   108 H    0.970
    69   6 C    3.926 --    68 C    1.362    73 N    1.208    70 C    1.176
    70   6 C    3.957 --    71 C    1.645    69 C    1.176   109 H    0.975
    71   6 C    3.962 --    70 C    1.645    72 C    1.178   110 H    0.973
    72   6 C    3.919 --    74 C    1.307    73 N    1.227    71 C    1.178
    73   7 N    3.379 --    72 C    1.227    69 C    1.208    67 Fe   0.670
    74   6 C    3.925 --    83 C    1.326    72 C    1.307    75 C    1.041
    75   6 C    3.984 --    82 C    1.379    76 C    1.370    74 C    1.041
    76   6 C    3.986 --    77 C    1.479    75 C    1.370   111 H    0.972
    77   6 C    3.987 --    76 C    1.479    78 C    1.341   112 H    0.971
    78   6 C    3.949 --    81 C    1.350    77 C    1.341    79 N    1.114
    79   7 N    3.181 --    78 C    1.114    80 C    0.971   113 H    0.930
    80   6 C    3.967 --   116 H    0.990   114 H    0.986   115 H    0.983
                            79 N    0.971
    81   6 C    3.987 --    82 C    1.468    78 C    1.350   117 H    0.970
    82   6 C    3.984 --    81 C    1.468    75 C    1.379   118 H    0.972
    83   6 C    3.916 --    74 C    1.326    86 N    1.203    84 C    1.183
    84   6 C    3.958 --    85 C    1.633    83 C    1.183   119 H    0.973
    85   6 C    3.960 --    84 C    1.633    87 C    1.191   120 H    0.974
    86   7 N    3.376 --    87 C    1.243    83 C    1.203    67 Fe   0.657
    87   6 C    3.905 --    88 C    1.248    86 N    1.243    85 C    1.191
    88   6 C    3.922 --    87 C    1.248    89 C    1.248   140 C    1.206
    89   6 C    3.904 --    88 C    1.248    93 N    1.245    90 C    1.191
    90   6 C    3.958 --    91 C    1.634    89 C    1.191   121 H    0.974
    91   6 C    3.958 --    90 C    1.634    92 C    1.182   122 H    0.973
    92   6 C    3.916 --    94 C    1.328    93 N    1.201    91 C    1.182
    93   7 N    3.379 --    89 C    1.245    92 C    1.201    67 Fe   0.663
    94   6 C    3.925 --    92 C    1.328   103 C    1.305    95 C    1.042
    95   6 C    3.984 --    96 C    1.379   102 C    1.369    94 C    1.042
    96   6 C    3.986 --    97 C    1.468    95 C    1.379   123 H    0.972
    97   6 C    3.987 --    96 C    1.468    98 C    1.350   124 H    0.970
    98   6 C    3.949 --    97 C    1.350   101 C    1.341    99 N    1.114
    99   7 N    3.181 --    98 C    1.114   100 C    0.971   125 H    0.930
   100   6 C    3.967 --   127 H    0.990   128 H    0.986   126 H    0.983
                            99 N    0.971
   101   6 C    3.987 --   102 C    1.480    98 C    1.341   129 H    0.971
   102   6 C    3.984 --   101 C    1.480    95 C    1.369   130 H    0.972
   103   6 C    3.919 --    94 C    1.305   107 N    1.228   104 C    1.179
   104   6 C    3.962 --   105 C    1.644   103 C    1.179   131 H    0.973
   105   6 C    3.959 --   104 C    1.644   106 C    1.176   132 H    0.975
   106   6 C    3.926 --    68 C    1.362   107 N    1.207   105 C    1.176
   107   7 N    3.375 --   103 C    1.228   106 C    1.207    67 Fe   0.663
   108   1 H    1.001 --    68 C    0.970
   109   1 H    0.998 --    70 C    0.975
   110   1 H    1.005 --    71 C    0.973
   111   1 H    1.005 --    76 C    0.972
   112   1 H    0.999 --    77 C    0.971
   113   1 H    0.965 --    79 N    0.930
   114   1 H    1.011 --    80 C    0.986
   115   1 H    1.003 --    80 C    0.983
   116   1 H    1.007 --    80 C    0.990
   117   1 H    1.001 --    81 C    0.970
   118   1 H    1.005 --    82 C    0.972
   119   1 H    1.005 --    84 C    0.973
   120   1 H    1.002 --    85 C    0.974
   121   1 H    1.002 --    90 C    0.974
   122   1 H    1.005 --    91 C    0.973
   123   1 H    1.006 --    96 C    0.972
   124   1 H    1.001 --    97 C    0.970
   125   1 H    0.965 --    99 N    0.930
   126   1 H    1.003 --   100 C    0.983
   127   1 H    1.007 --   100 C    0.990
   128   1 H    1.011 --   100 C    0.986
   129   1 H    0.999 --   101 C    0.971
   130   1 H    1.005 --   102 C    0.972
   131   1 H    1.005 --   104 C    0.973
   132   1 H    0.998 --   105 C    0.975
   133   6 C    3.866 --   134 C    2.412    22 C    1.206   136 C    0.183
   134   6 C    3.924 --   133 C    2.412   135 C    1.362
   135   6 C    3.882 --   136 C    2.308   134 C    1.362   138 C    0.178
   136   6 C    3.915 --   135 C    2.308   137 C    1.387   133 C    0.183
   137   6 C    3.915 --   138 C    2.308   136 C    1.387   140 C    0.183
   138   6 C    3.882 --   137 C    2.308   139 C    1.362   135 C    0.178
   139   6 C    3.924 --   140 C    2.412   138 C    1.362
   140   6 C    3.866 --   139 C    2.412    88 C    1.206   137 C    0.183
 ---------------------------------------------------------------------------

           -------------------------------------------------
          | TOTAL ENERGY             -231.759035422001 Eh   |
          | GRADIENT NORM               0.000329644977 Eh/α |
          | HOMO-LUMO GAP               0.083754950392 eV   |
           -------------------------------------------------

 * finished run on 2022/07/29 at 17:47:19.416
