   * xtb version 6.5.1 (b24c23e) compiled by 'conda@728c89f4b128' on 2022-07-12
          program call               : xtb PhCHO_C8_2.xyz --gfn 1 --opt -T 48

   ID    Z sym.   atoms
    1    6 C      1-5, 7-12, 14-18, 20-25, 27-32, 34-39, 62-66, 68-73, 75-79,
                  81-86, 88-93, 95-100, 123-130
    2    7 N      6, 19, 26, 40, 67, 80, 87, 101
    3    8 O      13, 33, 74, 94
    4    1 H      41-61, 102-122
########################################################################
[WARNING] Please study the warnings concerning your input carefully
-1- prog_main_parseArguments: Unknown option '-T' provided
########################################################################

          :  Hamiltonian                  GFN1-xTB          :
 * total energy  :  -226.8416724 Eh     change       -0.1761293E-08 Eh
 * total energy  :  -227.1105659 Eh     change       -0.2688935E+00 Eh
 * total energy  :  -227.1972794 Eh     change       -0.8671349E-01 Eh
 * total energy  :  -227.2280844 Eh     change       -0.3080494E-01 Eh
 * total energy  :  -227.2403006 Eh     change       -0.1221628E-01 Eh
 * total energy  :  -227.2474234 Eh     change       -0.7122770E-02 Eh
 * total energy  :  -227.2493454 Eh     change       -0.1921967E-02 Eh
 * total energy  :  -227.2523667 Eh     change       -0.3021292E-02 Eh
 * total energy  :  -227.2537773 Eh     change       -0.1410596E-02 Eh
 * total energy  :  -227.2556254 Eh     change       -0.1848093E-02 Eh
 * total energy  :  -227.2646389 Eh     change       -0.2660781E-04 Eh
 * total energy  :  -227.2646322 Eh     change        0.6706282E-05 Eh
 * total energy  :  -227.2646480 Eh     change       -0.1574454E-04 Eh
 * total energy  :  -227.2645577 Eh     change        0.9023470E-04 Eh
 * total energy  :  -227.2646470 Eh     change       -0.8925843E-04 Eh
 * total energy  :  -227.2646606 Eh     change       -0.1359274E-04 Eh
 * total energy  :  -227.2646544 Eh     change        0.6168553E-05 Eh
 * total energy  :  -227.2646659 Eh     change       -0.1143266E-04 Eh
 * total energy  :  -227.2646688 Eh     change       -0.2952482E-05 Eh
   *** GEOMETRY OPTIMIZATION CONVERGED AFTER 51 ITERATIONS ***

 final structure:
================
130
 xtb: 6.5.1 (b24c23e)
C           10.31388993196984       -0.07819316628462       -0.12129103285055
C           10.93002284646556       -1.28939215062884       -0.40790206685782
C           10.28596815575660       -2.51605521774278       -0.73325101767103
C           11.25313996670301       -3.46337007927654       -0.91801119345626
C           12.51926820939859       -2.84702692497868       -0.70408440419041
N           12.27406160345589       -1.53616445746230       -0.41070806800591
C           13.78587380752517       -3.43578880835807       -0.79835865476306
C           13.82327769013150       -4.88780757318624       -1.09032343266287
C           14.45943863684202       -5.36564200153650       -2.24028752429787
C           14.49331030478897       -6.72064234098349       -2.50717194120148
C           13.89622417058561       -7.63065177325414       -1.62837300716168
C           13.95017213201536       -9.07210885425147       -1.93237662516297
O           14.47999698722823       -9.53039529836221       -2.91211111027283
C           13.26049797503219       -7.15487289034044       -0.47902661170520
C           13.22190740874632       -5.79735574873596       -0.21546904424151
C           14.99892768724969       -2.76148491809558       -0.63607088969117
C           16.29932165411093       -3.40531765822291       -0.69109134334405
C           17.21488774260537       -2.43382230100420       -0.49792536274389
N           15.14614588209887       -1.43106196930153       -0.38782048019865
C           16.47257134980158       -1.20230254079754       -0.30945754826909
C           17.10390301753884        0.03689424893572       -0.07657102757161
C           16.46137145696998        1.26201134878468        0.18510410733591
C           17.09827426748215        2.50912383149425        0.42029287908304
C           16.12635962689329        3.44070788703379        0.65947535737055
C           14.86474731267472        2.78783282083923        0.58244275176645
N           15.11882256341190        1.47555065474197        0.28437094115944
C           13.59886152808645        3.36358028929262        0.73951293031674
C           13.55960323229568        4.79864060333540        1.10311642618726
C           14.14998389843299        5.24242588725720        2.29085592870505
C           14.10396717433356        6.57892572691002        2.63686711382963
C           13.47272577237446        7.50533505215709        1.80009079084773
C           13.43698933224879        8.92600657683374        2.19174022760817
O           13.92495243150026        9.35287082105799        3.20684294139177
C           12.88770936158117        7.06464747507588        0.61042514418561
C           12.92876724373313        5.72504729244691        0.26755082265182
C           12.38456638658444        2.68590203553677        0.58240514505639
C           11.07630524929567        3.28828319995820        0.78949942903044
C           10.16801637477862        2.32440177813090        0.53855114827961
C           10.91996384680288        1.13015972235883        0.19532884290746
N           12.25128499788258        1.38319195703906        0.23969749707850
H            9.22877097791927       -0.08915080993294       -0.13951081769141
H            9.21840966777957       -2.64279337299224       -0.81647910270126
H           11.10845815716447       -4.49650437018629       -1.18933535689590
H           12.99473666507967       -0.84692172896915       -0.22412810628503
H           14.91203586808417       -4.66229880381903       -2.92997322303263
H           14.98080610443830       -7.09879342345744       -3.39933612949658
H           13.45505490667677       -9.71634856786674       -1.17472286909866
H           12.79773934149546       -7.85387758487203        0.21010365542880
H           12.74062572379847       -5.43287168739066        0.68521099989549
H           16.46765002149048       -4.45900881974181       -0.84307061542145
H           18.28929350584184       -2.51842295703406       -0.46913065928438
H           18.16491530791266        2.66436654587591        0.40303668373267
H           16.26729440520849        4.49019523581618        0.85999866220059
H           14.40114220590683        0.77049396824981        0.15225403021916
H           14.62673623835345        4.52507305226699        2.94937489525305
H           14.55211705135917        6.92907693670796        3.56055843574162
H           12.91576274960389        9.58607296870983        1.46592522403471
H           12.40049784146043        7.77736696988972       -0.04705836576343
H           12.48550697410599        5.38872675427716       -0.66291826523762
H           10.90111165133510        4.30641684688794        1.09760883243692
H            9.09184615364631        2.38171564445674        0.58457975560166
C           35.63774839688815        0.13256753652869       -0.06168856668708
C           35.02061667827373        1.29846944451229        0.37252939175930
C           35.66361061710256        2.49988288634730        0.78308708204235
C           34.69567718926269        3.38917428376685        1.15617301476086
C           33.43011452197717        2.75658219354653        0.99204291830149
N           33.67641158633003        1.50384715598061        0.50777363840830
C           32.16314253632193        3.29766382731784        1.24063966132782
C           32.12531278830254        4.66728189586716        1.80436601429004
C           31.49063183841833        5.70364162813606        1.11260160788146
C           31.45745208552284        6.97885762560195        1.64281485050639
C           32.05359878482735        7.24733375113104        2.87952795061896
C           32.00073043692709        8.61519935243747        3.42662193619693
O           31.47309242748586        9.54092475750044        2.86517905096822
C           32.68749059877119        6.21292115703176        3.57209192714779
C           32.72553111409997        4.93748494493601        3.03764083195976
C           30.95046045306762        2.64635938221607        1.00058009753355
C           29.64974393526811        3.21217593698110        1.31128242482644
C           28.73462639228699        2.29670256814431        0.93198907568636
N           30.80388035255253        1.40190368468452        0.46842966208502
C           29.47756390745036        1.16780574881262        0.40582586191755
C           28.84698251202272        0.00717557256160       -0.08795444701179
C           29.49060882243941       -1.15704326763776       -0.54898715546901
C           28.85468391597093       -2.32607911187921       -1.04419750864804
C           29.82736749474238       -3.23345628731144       -1.36084171525216
C           31.08846413887812       -2.64622412517416       -1.06315437894784
N           30.83332352633188       -1.38877415402523       -0.58439159608868
C           32.35475278150111       -3.21160720552413       -1.25142746899906
C           32.39494152664592       -4.60775404904999       -1.74384900419965
C           31.80739080666499       -5.63597576672860       -0.99973840651532
C           31.85435975141956       -6.94027834145928       -1.45215697206474
C           32.48355775727345       -7.24706777645549       -2.66330414845473
C           32.52023032646702       -8.64671955456553       -3.12442501384389
O           32.03503464216395       -9.56514372013691       -2.51461282927114
C           33.06570549700471       -6.22032458589322       -3.41073552385793
C           33.02387164543110       -4.91520198528556       -2.95390013575099
C           33.56865628078231       -2.55962398297501       -1.00710667713187
C           34.87727759311111       -3.17479558250824       -1.16949419916360
C           35.78507242220955       -2.23268478555414       -0.84488244258484
C           35.03244822042473       -1.04906649403044       -0.46798998399303
N           33.70125739593339       -1.28526442368433       -0.57038399586716
H           36.72283316651269        0.15289495627694       -0.07151209777861
H           36.73101459272410        2.65258449443519        0.78383094001355
H           34.83942009926554        4.39907070697344        1.50454792243539
H           32.95642212426342        0.82626676188747        0.28031782989782
H           31.03878132359023        5.50192845393084        0.14805540085842
H           30.97135968597005        7.78915238449664        1.11012954400913
H           32.49441978871619        8.72987856189151        4.41526539242270
H           33.14946572316937        6.41128793199343        4.53379450865956
H           33.20563803860541        4.13387365321468        3.58482847284558
H           29.48092081879204        4.17299393055280        1.76957065564202
H           27.66016144241609        2.35094632567236        1.00204523433950
H           27.78815864415407       -2.44661990183980       -1.14482048323253
H           29.68735499162827       -4.21847465940774       -1.77513813288471
H           31.55034097331070       -0.72799228735824       -0.30352771325540
H           31.33206664755104       -5.40414755042111       -0.05324360905815
H           31.40849255877300       -7.74414221961104       -0.87626480474342
H           33.03965020484324       -8.79346949966041       -4.09536975606765
H           33.55130672629828       -6.44876528228353       -4.35393822441755
H           33.46506560118738       -4.11912754340140       -3.54294762799418
H           35.05299043236565       -4.19287159269456       -1.47750697579839
H           36.86130572521503       -2.30504338861933       -0.83912545101801
C           18.50898694397372        0.05977839905287       -0.09440826169804
C           19.73364459862503        0.06576790036647       -0.11366433644902
C           21.07593366703203        0.06317717516453       -0.12829634350759
C           22.30670319627938        0.04981468608098       -0.14083680884552
C           23.64421639335185        0.03520279470796       -0.14645928080698
C           24.87497688370545        0.01650039626322       -0.14451088518178
C           26.21725712673887        0.00486654200081       -0.13455620982581
C           27.44192744630638       -0.00264359689901       -0.11590342921522

          :  Hamiltonian                  GFN1-xTB          :
         :: total energy            -227.264668814708 Eh    ::
         :: gradient norm              0.000349488176 Eh/a0 ::
         :: HOMO-LUMO gap              1.035002753744 eV    ::
         :: SCC energy              -230.998223519029 Eh    ::
         :: repulsion energy           3.841260275073 Eh    ::

    * Orbital Energies and Occupations

         #    Occupation            Energy/Eh            Energy/eV
      -------------------------------------------------------------
         1        2.0000           -0.8162610             -22.2116
       ...           ...                  ...                  ...
       193        2.0000           -0.4337584             -11.8032
       194        2.0000           -0.4325009             -11.7689
       195        2.0000           -0.4317851             -11.7495
       196        2.0000           -0.4290388             -11.6747
       197        2.0000           -0.4289865             -11.6733
       198        2.0000           -0.4272329             -11.6256
       199        2.0000           -0.4272279             -11.6255
       200        2.0000           -0.4237238             -11.5301
       201        2.0000           -0.4170836             -11.3494
       202        2.0000           -0.4110806             -11.1861
       203        2.0000           -0.4108196             -11.1790
       204        2.0000           -0.3990702             -10.8593
       205        2.0000           -0.3910627             -10.6414 (HOMO)
       206                         -0.3530271              -9.6064 (LUMO)
       207                         -0.3467540              -9.4357
       208                         -0.3459837              -9.4147
       209                         -0.3429051              -9.3309
       210                         -0.3283235              -8.9341
       211                         -0.3277521              -8.9186
       212                         -0.3227788              -8.7833
       213                         -0.3227222              -8.7817
       214                         -0.3118683              -8.4864
       215                         -0.3096648              -8.4264
       216                         -0.3033621              -8.2549
       ...                                ...                  ...
       436                          1.5961948              43.4347
      -------------------------------------------------------------
                  HL-Gap            0.0380357 Eh            1.0350 eV

Wiberg/Mayer (AO) data.
largest (>0.10) Wiberg bond orders for each atom

     #   Z sym  total        # sym  WBO       # sym  WBO       # sym  WBO
 ---------------------------------------------------------------------------
     1   6 C    3.926 --    39 C    1.367     2 C    1.347    41 H    0.970
     2   6 C    3.901 --     1 C    1.347     3 C    1.229     6 N    1.169
     3   6 C    3.953 --     4 C    1.596     2 C    1.229    42 H    0.976
     4   6 C    3.959 --     3 C    1.596     5 C    1.234    43 H    0.974
     5   6 C    3.896 --     7 C    1.300     4 C    1.234     6 N    1.179
     6   7 N    3.470 --     5 C    1.179     2 C    1.169    44 H    0.873
     7   6 C    3.938 --    16 C    1.333     5 C    1.300     8 C    1.035
     8   6 C    3.986 --    15 C    1.382     9 C    1.380     7 C    1.035
     9   6 C    3.987 --    10 C    1.471     8 C    1.380    45 H    0.971
    10   6 C    3.988 --     9 C    1.471    11 C    1.369    46 H    0.968
                            15 C    0.100
    11   6 C    3.982 --    14 C    1.378    10 C    1.369    12 C    1.049
    12   6 C    3.864 --    13 O    1.808    11 C    1.049    47 H    0.942
    13   8 O    2.003 --    12 C    1.808
    14   6 C    3.993 --    15 C    1.466    11 C    1.378    48 H    0.971
    15   6 C    3.987 --    14 C    1.466     8 C    1.382    49 H    0.972
                            10 C    0.100
    16   6 C    3.913 --     7 C    1.333    19 N    1.286    17 C    1.124
    17   6 C    3.965 --    18 C    1.711    16 C    1.124    50 H    0.973
    18   6 C    3.963 --    17 C    1.711    20 C    1.127    51 H    0.974
    19   7 N    3.021 --    20 C    1.344    16 C    1.286
    20   6 C    3.906 --    19 N    1.344    21 C    1.253    18 C    1.127
    21   6 C    3.938 --    20 C    1.253    22 C    1.252   123 C    1.193
    22   6 C    3.883 --    21 C    1.252    23 C    1.249    26 N    1.189
    23   6 C    3.959 --    24 C    1.584    22 C    1.249    52 H    0.975
    24   6 C    3.954 --    23 C    1.584    25 C    1.240    53 H    0.974
    25   6 C    3.898 --    27 C    1.307    24 C    1.240    26 N    1.167
    26   7 N    3.474 --    22 C    1.189    25 C    1.167    54 H    0.873
    27   6 C    3.923 --    36 C    1.318    25 C    1.307    28 C    1.036
    28   6 C    3.986 --    35 C    1.381    29 C    1.379    27 C    1.036
    29   6 C    3.986 --    30 C    1.472    28 C    1.379    55 H    0.972
    30   6 C    3.988 --    29 C    1.472    31 C    1.369    56 H    0.968
                            35 C    0.100
    31   6 C    3.982 --    34 C    1.378    30 C    1.369    32 C    1.050
    32   6 C    3.864 --    33 O    1.807    31 C    1.050    57 H    0.942
    33   8 O    2.003 --    32 C    1.807
    34   6 C    3.993 --    35 C    1.466    31 C    1.378    58 H    0.971
    35   6 C    3.987 --    34 C    1.466    28 C    1.381    59 H    0.972
                            30 C    0.100
    36   6 C    3.928 --    40 N    1.319    27 C    1.318    37 C    1.117
    37   6 C    3.967 --    38 C    1.724    36 C    1.117    60 H    0.973
    38   6 C    3.966 --    37 C    1.724    39 C    1.116    61 H    0.975
    39   6 C    3.928 --     1 C    1.367    40 N    1.299    38 C    1.116
    40   7 N    3.011 --    36 C    1.319    39 C    1.299
    41   1 H    1.002 --     1 C    0.970
    42   1 H    0.997 --     3 C    0.976
    43   1 H    1.004 --     4 C    0.974
    44   1 H    0.986 --     6 N    0.873
    45   1 H    1.004 --     9 C    0.971
    46   1 H    1.005 --    10 C    0.968
    47   1 H    1.010 --    12 C    0.942
    48   1 H    1.000 --    14 C    0.971
    49   1 H    1.004 --    15 C    0.972
    50   1 H    1.004 --    17 C    0.973
    51   1 H    1.002 --    18 C    0.974
    52   1 H    1.001 --    23 C    0.975
    53   1 H    1.004 --    24 C    0.974
    54   1 H    0.987 --    26 N    0.873
    55   1 H    1.004 --    29 C    0.972
    56   1 H    1.005 --    30 C    0.968
    57   1 H    1.010 --    32 C    0.942
    58   1 H    1.000 --    34 C    0.971
    59   1 H    1.004 --    35 C    0.972
    60   1 H    1.004 --    37 C    0.973
    61   1 H    0.998 --    38 C    0.975
    62   6 C    3.926 --   100 C    1.367    63 C    1.347   102 H    0.971
    63   6 C    3.901 --    62 C    1.347    64 C    1.229    67 N    1.169
    64   6 C    3.953 --    65 C    1.596    63 C    1.229   103 H    0.976
    65   6 C    3.959 --    64 C    1.596    66 C    1.234   104 H    0.974
    66   6 C    3.896 --    68 C    1.300    65 C    1.234    67 N    1.179
    67   7 N    3.470 --    66 C    1.179    63 C    1.169   105 H    0.873
    68   6 C    3.938 --    77 C    1.333    66 C    1.300    69 C    1.035
    69   6 C    3.986 --    76 C    1.383    70 C    1.380    68 C    1.035
    70   6 C    3.987 --    71 C    1.471    69 C    1.380   106 H    0.971
    71   6 C    3.988 --    70 C    1.471    72 C    1.369   107 H    0.968
                            76 C    0.100
    72   6 C    3.982 --    75 C    1.378    71 C    1.369    73 C    1.049
    73   6 C    3.864 --    74 O    1.808    72 C    1.049   108 H    0.942
    74   8 O    2.003 --    73 C    1.808
    75   6 C    3.993 --    76 C    1.466    72 C    1.378   109 H    0.971
    76   6 C    3.987 --    75 C    1.466    69 C    1.383   110 H    0.972
                            71 C    0.100
    77   6 C    3.913 --    68 C    1.333    80 N    1.286    78 C    1.124
    78   6 C    3.965 --    79 C    1.711    77 C    1.124   111 H    0.973
    79   6 C    3.963 --    78 C    1.711    81 C    1.127   112 H    0.974
    80   7 N    3.021 --    81 C    1.344    77 C    1.286
    81   6 C    3.906 --    80 N    1.344    82 C    1.253    79 C    1.127
    82   6 C    3.938 --    81 C    1.253    83 C    1.252   130 C    1.193
    83   6 C    3.883 --    82 C    1.252    84 C    1.249    87 N    1.189
    84   6 C    3.959 --    85 C    1.584    83 C    1.249   113 H    0.975
    85   6 C    3.954 --    84 C    1.584    86 C    1.240   114 H    0.974
    86   6 C    3.898 --    88 C    1.307    85 C    1.240    87 N    1.167
    87   7 N    3.474 --    83 C    1.189    86 C    1.167   115 H    0.873
    88   6 C    3.923 --    97 C    1.318    86 C    1.307    89 C    1.036
    89   6 C    3.986 --    96 C    1.382    90 C    1.379    88 C    1.036
    90   6 C    3.986 --    91 C    1.472    89 C    1.379   116 H    0.972
    91   6 C    3.988 --    90 C    1.472    92 C    1.369   117 H    0.968
                            96 C    0.100
    92   6 C    3.982 --    95 C    1.378    91 C    1.369    93 C    1.049
    93   6 C    3.864 --    94 O    1.807    92 C    1.049   118 H    0.942
    94   8 O    2.003 --    93 C    1.807
    95   6 C    3.993 --    96 C    1.466    92 C    1.378   119 H    0.971
    96   6 C    3.987 --    95 C    1.466    89 C    1.382   120 H    0.972
                            91 C    0.100
    97   6 C    3.928 --   101 N    1.319    88 C    1.318    98 C    1.117
    98   6 C    3.967 --    99 C    1.724    97 C    1.117   121 H    0.973
    99   6 C    3.966 --    98 C    1.724   100 C    1.116   122 H    0.975
   100   6 C    3.928 --    62 C    1.367   101 N    1.299    99 C    1.116
   101   7 N    3.011 --    97 C    1.319   100 C    1.299
   102   1 H    1.002 --    62 C    0.971
   103   1 H    0.997 --    64 C    0.976
   104   1 H    1.004 --    65 C    0.974
   105   1 H    0.986 --    67 N    0.873
   106   1 H    1.004 --    70 C    0.971
   107   1 H    1.005 --    71 C    0.968
   108   1 H    1.010 --    73 C    0.942
   109   1 H    1.000 --    75 C    0.971
   110   1 H    1.004 --    76 C    0.972
   111   1 H    1.004 --    78 C    0.973
   112   1 H    1.002 --    79 C    0.974
   113   1 H    1.001 --    84 C    0.975
   114   1 H    1.004 --    85 C    0.974
   115   1 H    0.987 --    87 N    0.873
   116   1 H    1.004 --    90 C    0.972
   117   1 H    1.005 --    91 C    0.968
   118   1 H    1.010 --    93 C    0.942
   119   1 H    1.000 --    95 C    0.971
   120   1 H    1.004 --    96 C    0.972
   121   1 H    1.004 --    98 C    0.973
   122   1 H    0.998 --    99 C    0.975
   123   6 C    3.877 --   124 C    2.437    21 C    1.193   126 C    0.186
   124   6 C    3.932 --   123 C    2.437   125 C    1.346
   125   6 C    3.892 --   126 C    2.334   124 C    1.346   128 C    0.182
   126   6 C    3.924 --   125 C    2.334   127 C    1.371   123 C    0.186
   127   6 C    3.924 --   128 C    2.334   126 C    1.371   130 C    0.186
   128   6 C    3.892 --   127 C    2.334   129 C    1.346   125 C    0.182
   129   6 C    3.932 --   130 C    2.437   128 C    1.346
   130   6 C    3.877 --   129 C    2.437    82 C    1.193   127 C    0.186
 ---------------------------------------------------------------------------

           -------------------------------------------------
          | TOTAL ENERGY             -227.264668814708 Eh   |
          | GRADIENT NORM               0.000349488176 Eh/α |
          | HOMO-LUMO GAP               1.035002753744 eV   |
           -------------------------------------------------

 * finished run on 2022/07/30 at 15:25:47.968
