   * xtb version 6.5.1 (b24c23e) compiled by 'conda@728c89f4b128' on 2022-07-12
          program call               : xtb Co_DHP_C2_3.xyz --gfn 1 --opt -T 48

   ID    Z sym.   atoms
    1   27 Co     1, 59, 121
    2    6 C      2-6, 8-11, 13-17, 19-24, 26-29, 31-36, 60-64, 66-69, 71-75,
                  77-82, 84-87, 89-94, 117-120, 122-126, 128-131, 133-137,
                  139-144, 146-149, 151-156
    3    7 N      7, 12, 18, 25, 30, 37, 65, 70, 76, 83, 88, 95, 127, 132,
                  138, 145, 150, 157
    4    1 H      38-58, 96-116, 158-177
########################################################################
[WARNING] Please study the warnings concerning your input carefully
-1- prog_main_parseArguments: Unknown option '-T' provided
########################################################################

          :  Hamiltonian                  GFN1-xTB          :
 * total energy  :  -299.2486934 Eh     change       -0.1895557E-08 Eh
 * total energy  :  -299.4304482 Eh     change       -0.1817548E+00 Eh
 * total energy  :  -299.5866916 Eh     change       -0.1562434E+00 Eh
 * total energy  :  -299.6500854 Eh     change       -0.6339381E-01 Eh
 * total energy  :  -299.6965520 Eh     change       -0.4646659E-01 Eh
 * total energy  :  -299.7409533 Eh     change       -0.4440131E-01 Eh
 * total energy  :  -299.7801585 Eh     change       -0.3920520E-01 Eh
 * total energy  :  -299.8048952 Eh     change       -0.2473667E-01 Eh
 * total energy  :  -299.8239102 Eh     change       -0.1901502E-01 Eh
 * total energy  :  -299.8381684 Eh     change       -0.1425818E-01 Eh
 * total energy  :  -299.9313207 Eh     change       -0.1783829E-04 Eh
 * total energy  :  -299.9313379 Eh     change       -0.1718064E-04 Eh
 * total energy  :  -299.9313547 Eh     change       -0.1675787E-04 Eh
 * total energy  :  -299.9313722 Eh     change       -0.1755551E-04 Eh
 * total energy  :  -299.9313862 Eh     change       -0.1396849E-04 Eh
 * total energy  :  -299.9313967 Eh     change       -0.1052507E-04 Eh
 * total energy  :  -299.9314046 Eh     change       -0.7890778E-05 Eh
 * total energy  :  -299.9314134 Eh     change       -0.8764566E-05 Eh
 * total energy  :  -299.9314178 Eh     change       -0.4372047E-05 Eh
   *** GEOMETRY OPTIMIZATION CONVERGED AFTER 188 ITERATIONS ***

 final structure:
================
177
 xtb: 6.5.1 (b24c23e)
Co          30.63004321325994        0.22709094114445       -0.38836429666096
C           27.67405294264324        0.03622874072229       -1.93765483008631
C           28.13612957977468       -1.09149709535740       -1.28663994934831
C           27.38321875873735       -2.30007440380050       -1.14582048921416
C           28.11227728688857       -3.12306231086153       -0.35367570545554
C           29.34634080333174       -2.44719378510693       -0.07676998281330
N           29.32317352909112       -1.18303517338662       -0.60968661400325
C           30.46353946288744       -3.04246015165659        0.49643074182225
C           30.39605560299152       -4.43402665396153        0.99557071933537
C           30.06436631578552       -5.46829952413901        0.20693167672876
C           29.99267355365280       -6.88388333569640        0.71579836796772
N           30.67442679026835       -7.02146613978015        2.00436222244098
C           30.84824385132461       -5.94212843439700        2.82771979530660
C           30.75407625912865       -4.67506198625640        2.38526189135043
C           31.69560653873021       -2.39841316099570        0.51839722907713
C           32.93816938691187       -3.06319152304565        0.76921822243525
C           33.91901755102854       -2.14866310858324        0.57037028959181
N           31.91780425277969       -1.08253865092934        0.19749038703096
C           33.27264493664539       -0.91283909635947        0.26091396580809
C           33.93140754569145        0.32084115064489        0.24002292000845
C           33.21295254669947        1.52454843471493        0.24964731324122
C           33.77604220946955        2.78064470276538        0.62992459136841
C           32.76531766788126        3.68428794376291        0.61295518400253
C           31.60019340285191        2.99127556267133        0.15212775910948
N           31.88050331307698        1.65197346081724       -0.00751294568173
C           30.42133648213260        3.60751870872992       -0.24199769744807
C           30.25638173704275        5.06815866747799       -0.06877359678318
C           29.23983326776132        5.56329145397818        0.65470073292003
C           29.02818178618942        7.04031743747124        0.85368920587651
N           30.21826902180672        7.80459583856257        0.47213445241057
C           31.12314863181101        7.29372248154057       -0.41994500284340
C           31.20808677971934        5.97800152247958       -0.68789916358683
C           29.41893210427548        2.89790000536721       -0.89811830965983
C           28.34239992666375        3.50741275591513       -1.62232449571365
C           27.63629292608443        2.50386302754512       -2.19722024194584
C           28.24992845430553        1.27958323489845       -1.77928545321402
N           29.36350904158970        1.53693876504302       -1.01914824954385
H           26.74985246023967       -0.03584622726590       -2.49926089227474
H           26.40711551901695       -2.46685596476898       -1.57340698590171
H           27.85213823081820       -4.10687841773194        0.00176168185466
H           29.82574939904164       -5.33553155969818       -0.84163115935421
H           30.47252891381382       -7.56730153510045        0.00192932843515
H           28.93758323886338       -7.20160465187231        0.81136196272620
H           30.53684598647981       -7.91568868831963        2.45173343294473
H           31.14426198745242       -6.18718344959000        3.84265080109839
H           30.94753343363190       -3.83510727635183        3.03711406333750
H           33.03780229740222       -4.10392735773078        1.03191827401181
H           34.98539403270280       -2.27864801282420        0.65647066447769
H           34.80486866649029        2.93126002666657        0.91375650299236
H           32.80336960301129        4.73097395930691        0.86728822458084
H           28.50997456846754        4.91608489354388        1.12693921664126
H           28.81144140962089        7.25299732335193        1.90952803446789
H           28.15510665191002        7.38232023595397        0.26708971483448
H           30.07271356959753        8.80322908196653        0.44159933050314
H           31.81675890858129        8.02030469944312       -0.83098460766280
H           31.95523295380854        5.58993151564260       -1.36539218034762
H           28.17677763267750        4.57016252765451       -1.69710566437444
H           26.75882159386011        2.56731885279486       -2.82119215670841
Co          52.08736402606930        0.23371872392609        0.02986795415419
C           55.44341650043321        0.03194943595857       -0.18672635848081
C           54.87160974284410        1.26904427351532        0.02409247047651
C           55.61486479312698        2.48028149824537        0.19502203220201
C           54.71742801730204        3.49425459467576        0.16258329642420
C           53.42819064141258        2.90104441885003       -0.04327166182122
N           53.52723752214973        1.53337415446507       -0.05313771319123
C           52.27008407315234        3.61420938534889       -0.32737421969768
C           52.34428520927463        5.08347786257831       -0.48872046859902
C           53.13592079063800        5.65152027456666       -1.41239703278194
C           53.23741617896884        7.14306580980964       -1.58944718563550
N           52.14856014227521        7.83824547049962       -0.89917584695304
C           51.48882047780276        7.25101601514876        0.14679241070997
C           51.52152857438141        5.92421469109650        0.36737955720261
C           51.04170333046353        2.98332349504371       -0.46628975605114
C           49.82501941957121        3.65377170244932       -0.81361747320526
C           48.82378230011155        2.75473707710216       -0.65335358814931
N           50.79144094278674        1.66376476546716       -0.16899273586208
C           49.43114402167975        1.53659308100422       -0.21947794394549
C           48.71467850119332        0.43746626356740        0.26045034366705
C           49.35358877012889       -0.74351023185011        0.64695840733001
C           48.66893737146064       -1.88506724392417        1.16618208052444
C           49.56597381407626       -2.90064710364118        1.18693003941910
C           50.79522493868290       -2.37699417321031        0.67193588785723
N           50.66864053657202       -1.03273390898799        0.40972708382396
C           51.90752024107368       -3.14927738913756        0.36666731396694
C           51.81896359835343       -4.61940701326554        0.50967751585746
C           52.65282650093103       -5.30300191144694        1.30972300431769
C           52.58743348808557       -6.79937405069596        1.46178706546818
N           51.32843357370480       -7.33440719041188        0.93842850967984
C           50.61054682883783       -6.64708121142226       -0.00359779392761
C           50.78413457121811       -5.33148028447673       -0.22468877079561
C           53.09662120367722       -2.57523117858768       -0.06590269695209
C           54.26848674273183       -3.31439977182135       -0.43589559460206
C           55.27028575879537       -2.41435797176833       -0.58049617833521
C           54.70560594599063       -1.12593442686997       -0.31648552504291
N           53.35997633773007       -1.22936858323405       -0.06827425836073
H           56.52300739694419       -0.03302252846351       -0.25616544898868
H           56.68563113453592        2.52915695016462        0.31535186279524
H           54.89943884433167        4.55192846619317        0.26479461450551
H           53.75415569511596        5.05833597609680       -2.07605449780290
H           53.18492034556262        7.40213216080533       -2.65600958289126
H           54.21299372568932        7.50522927194140       -1.21498868372234
H           52.26020551137979        8.84061666201585       -0.85705066230354
H           50.87631098193512        7.92703353629593        0.73481466697118
H           50.95547572558166        5.47389273327523        1.17032163816058
H           49.75635196152697        4.68185273711842       -1.13036664911078
H           47.76482088396214        2.89415724592521       -0.79902346826781
H           47.63151328351218       -1.89789200465665        1.45911701041421
H           49.41753105004661       -3.91731563538149        1.51304616141653
H           53.42717464521927       -4.80727605706691        1.88341458792386
H           52.65967867622450       -7.07544016694352        2.52280123885729
H           53.44258017836980       -7.27251475128997        0.94398728704278
H           51.30240211560105       -8.34176439547613        0.87787009229625
H           49.83874549530879       -7.22700700170256       -0.49948597583672
H           50.17443775443849       -4.79657772984275       -0.93891890628591
H           54.30776547607267       -4.38433211897248       -0.56199415715508
H           56.30354144599750       -2.58850301449166       -0.83635756621231
C           35.33065050146708        0.36546095509116        0.34880266313485
C           36.54517627767321        0.42309585652620        0.42706391366231
C           46.10227170468324        0.58006733608871        0.45131092377970
C           47.31444508546863        0.51835621101544        0.35920513954579
Co          41.31995435077759        0.69396852031901        0.74887007241415
C           37.94242674403657        0.50723631788739        0.53888947794760
C           38.57219652872604        1.73122239724425        0.27867039623517
C           37.87546350262728        2.94419829567854       -0.00656057574806
C           38.81461169802652        3.87074549950951       -0.31980799063462
C           40.08120595370244        3.20558584682474       -0.26684801431427
N           39.92078086307326        1.91027809822183        0.17295029464078
C           41.26356503623173        3.72880875611544       -0.76865629632472
C           41.26726428497091        5.07014939737660       -1.39154006353501
C           40.48255391944475        5.36630441927251       -2.44057026896524
C           40.52000693551055        6.70379797080632       -3.12883898073483
N           41.21355496044601        7.70395729246043       -2.31444028394537
C           42.11526846659916        7.33042743628173       -1.35503991041946
C           42.16548249611664        6.08147168969933       -0.85711995751198
C           42.45080242271744        3.00409344065335       -0.75437439325493
C           43.64831505367619        3.40356900636787       -1.42761390685228
C           44.60289752331938        2.49897158885765       -1.09640682334948
N           42.65893663731328        1.84273357328895       -0.05454001991953
C           43.99062575019664        1.56565824443549       -0.20538656210450
C           44.70276986770364        0.64186778924110        0.56246495518246
C           44.06174973091792       -0.18164675136915        1.49550957167131
C           44.74714547304884       -0.98203973288679        2.45834334222063
C           43.80155803480026       -1.70614597788316        3.10764424237552
C           42.54531413722032       -1.37406793365901        2.50677869740251
N           42.71359609917965       -0.37719135651574        1.57245867270753
C           41.36898316352271       -2.08735390601060        2.69248996836381
C           41.36234841291878       -3.27132270152647        3.57847376356067
C           42.19149947509868       -4.30945769603417        3.38219089047341
C           42.20377860871565       -5.51954121325136        4.27722996062760
N           41.01019183137753       -5.57000017728056        5.12416716682370
C           40.29542818549796       -4.43743001997130        5.40495132106922
C           40.40307510738030       -3.31468735471546        4.67120418682616
C           40.19687920023490       -1.75106934487527        2.02424892187709
C           39.01091257962475       -2.55105566798164        2.02256134478910
C           38.06248845624469       -1.84196643458115        1.36241411146271
C           38.66584526282421       -0.60493487406915        0.98022403408414
N           39.98802360281872       -0.58491121141096        1.32996356081433
H           36.80500319280926        3.06205236165925        0.03395618946578
H           38.67038719317967        4.90719186456306       -0.57796066701019
H           39.83605490190022        4.62508459507003       -2.89570858390473
H           41.01300695095046        6.61144768448233       -4.11463867035485
H           39.49769603850613        7.06241529444759       -3.31228465480898
H           41.39725912626224        8.57278070225660       -2.79442914183433
H           42.73007779236315        8.13804421410255       -0.97078269656854
H           42.83723313469305        5.82470153801629       -0.05044584476873
H           43.73494045144081        4.26064388238630       -2.07587609594232
H           45.63525059102130        2.46628211269422       -1.40495824104256
H           45.81319535590313       -0.97128787319133        2.61855491515524
H           43.93618204449886       -2.40830728974570        3.91415663071191
H           42.90274497587001       -4.32506636075154        2.56472923408633
H           43.11270761919423       -5.51662926594233        4.90711060750031
H           42.23276359310943       -6.43702902932243        3.67326263944673
H           41.04417625185621       -6.27506965337619        5.84559636459107
H           39.58113339299356       -4.54009127862123        6.21557396549076
H           39.79327209153701       -2.44696592799672        4.87872867785282
H           38.92642725134061       -3.52947261135798        2.46703513982456
H           37.03735584774154       -2.11081450901805        1.16700372133139

          :  Hamiltonian                  GFN1-xTB          :
         :: total energy            -299.931417754241 Eh    ::
         :: gradient norm              0.000658590567 Eh/a0 ::
         :: HOMO-LUMO gap              0.006270466939 eV    ::
         :: SCC energy              -304.468111627312 Eh    ::
         :: repulsion energy           4.698215482301 Eh    ::

    * Orbital Energies and Occupations

         #    Occupation            Energy/Eh            Energy/eV
      -------------------------------------------------------------
         1        2.0000           -0.7840726             -21.3357
       ...           ...                  ...                  ...
       266        1.9999           -0.3753443             -10.2136
       267        1.9999           -0.3750919             -10.2068
       268        1.9999           -0.3749578             -10.2031
       269        1.9999           -0.3748991             -10.2015
       270        1.9995           -0.3734768             -10.1628
       271        1.9981           -0.3722436             -10.1293
       272        1.9959           -0.3715034             -10.1091
       273        1.9914           -0.3707940             -10.0898
       274        1.9912           -0.3707736             -10.0893
       275        1.9712           -0.3696347             -10.0583
       276        1.5299           -0.3666827              -9.9779
       277        1.2415           -0.3659879              -9.9590
       278        1.1960           -0.3658903              -9.9564 (HOMO)
       279        1.0858           -0.3656599              -9.9501 (LUMO)
       280                         -0.3302496              -8.9865
       281                         -0.3185136              -8.6672
       282                         -0.3161826              -8.6038
       283                         -0.3161652              -8.6033
       284                         -0.3144516              -8.5567
       285                         -0.3072946              -8.3619
       286                         -0.2895634              -7.8794
       287                         -0.2820203              -7.6742
       288                         -0.2789724              -7.5912
       289                         -0.2752964              -7.4912
       ...                                ...                  ...
       599                          1.3529508              36.8157
      -------------------------------------------------------------
                  HL-Gap            0.0002304 Eh            0.0063 eV

Wiberg/Mayer (AO) data.
largest (>0.10) Wiberg bond orders for each atom

     #   Z sym  total        # sym  WBO       # sym  WBO       # sym  WBO
 ---------------------------------------------------------------------------
     1  27 Co   3.025 --    37 N    0.630     7 N    0.628    18 N    0.627
                            25 N    0.625
     2   6 C    3.921 --    36 C    1.368     3 C    1.353    38 H    0.971
     3   6 C    3.928 --     2 C    1.353     7 N    1.212     4 C    1.177
     4   6 C    3.960 --     5 C    1.644     3 C    1.177    39 H    0.975
     5   6 C    3.963 --     4 C    1.644     6 C    1.177    40 H    0.973
     6   6 C    3.923 --     8 C    1.321     7 N    1.212     5 C    1.177
     7   7 N    3.339 --     3 C    1.212     6 C    1.212     1 Co   0.628
     8   6 C    3.928 --     6 C    1.321    15 C    1.319     9 C    1.030
     9   6 C    3.985 --    10 C    1.757    14 C    1.101     8 C    1.030
    10   6 C    3.955 --     9 C    1.757    11 C    1.014    41 H    0.971
    11   6 C    3.959 --    10 C    1.014    42 H    0.975    43 H    0.965
                            12 N    0.948
    12   7 N    3.246 --    13 C    1.167    11 C    0.948    44 H    0.927
                            14 C    0.124
    13   6 C    3.952 --    14 C    1.684    12 N    1.167    45 H    0.970
    14   6 C    3.955 --    13 C    1.684     9 C    1.101    46 H    0.974
                            12 N    0.124
    15   6 C    3.917 --     8 C    1.319    18 N    1.205    16 C    1.184
    16   6 C    3.960 --    17 C    1.634    15 C    1.184    47 H    0.973
    17   6 C    3.962 --    16 C    1.634    19 C    1.190    48 H    0.968
    18   7 N    3.345 --    19 C    1.229    15 C    1.205     1 Co   0.627
    19   6 C    3.909 --    20 C    1.262    18 N    1.229    17 C    1.190
    20   6 C    3.927 --    19 C    1.262    21 C    1.246   117 C    1.192
    21   6 C    3.909 --    20 C    1.246    25 N    1.246    22 C    1.192
    22   6 C    3.961 --    23 C    1.633    21 C    1.192    49 H    0.969
    23   6 C    3.958 --    22 C    1.633    24 C    1.182    50 H    0.971
    24   6 C    3.918 --    26 C    1.336    25 N    1.189    23 C    1.182
    25   7 N    3.343 --    21 C    1.246    24 C    1.189     1 Co   0.625
    26   6 C    3.928 --    24 C    1.336    33 C    1.304    27 C    1.029
    27   6 C    3.985 --    28 C    1.759    32 C    1.101    26 C    1.029
    28   6 C    3.954 --    27 C    1.759    29 C    1.014    51 H    0.972
    29   6 C    3.959 --    28 C    1.014    52 H    0.975    53 H    0.965
                            30 N    0.948
    30   7 N    3.244 --    31 C    1.165    29 C    0.948    54 H    0.927
                            32 C    0.124
    31   6 C    3.953 --    32 C    1.684    30 N    1.165    55 H    0.971
    32   6 C    3.958 --    31 C    1.684    27 C    1.101    56 H    0.973
                            30 N    0.124
    33   6 C    3.921 --    26 C    1.304    37 N    1.226    34 C    1.179
    34   6 C    3.964 --    35 C    1.646    33 C    1.179    57 H    0.974
    35   6 C    3.959 --    34 C    1.646    36 C    1.174    58 H    0.975
    36   6 C    3.927 --     2 C    1.368    37 N    1.198    35 C    1.174
    37   7 N    3.342 --    33 C    1.226    36 C    1.198     1 Co   0.630
    38   1 H    1.001 --     2 C    0.971
    39   1 H    0.998 --     4 C    0.975
    40   1 H    1.006 --     5 C    0.973
    41   1 H    1.004 --    10 C    0.971
    42   1 H    1.016 --    11 C    0.975
    43   1 H    1.005 --    11 C    0.965
    44   1 H    0.962 --    12 N    0.927
    45   1 H    1.001 --    13 C    0.970
    46   1 H    1.003 --    14 C    0.974
    47   1 H    1.004 --    16 C    0.973
    48   1 H    1.005 --    17 C    0.968
    49   1 H    1.005 --    22 C    0.969
    50   1 H    1.006 --    23 C    0.971
    51   1 H    1.003 --    28 C    0.972
    52   1 H    1.017 --    29 C    0.975
    53   1 H    1.005 --    29 C    0.965
    54   1 H    0.963 --    30 N    0.927
    55   1 H    1.001 --    31 C    0.971
    56   1 H    1.004 --    32 C    0.973
    57   1 H    1.005 --    34 C    0.974
    58   1 H    0.998 --    35 C    0.975
    59  27 Co   3.038 --    65 N    0.633    95 N    0.633    83 N    0.631
                            76 N    0.630
    60   6 C    3.928 --    61 C    1.364    94 C    1.364    96 H    0.970
    61   6 C    3.928 --    60 C    1.364    65 N    1.202    62 C    1.176
    62   6 C    3.960 --    63 C    1.647    61 C    1.176    97 H    0.976
    63   6 C    3.964 --    62 C    1.647    64 C    1.177    98 H    0.974
    64   6 C    3.923 --    66 C    1.317    65 N    1.214    63 C    1.177
    65   7 N    3.341 --    64 C    1.214    61 C    1.202    59 Co   0.633
    66   6 C    3.934 --    73 C    1.328    64 C    1.317    67 C    1.030
    67   6 C    3.985 --    68 C    1.755    72 C    1.102    66 C    1.030
    68   6 C    3.954 --    67 C    1.755    69 C    1.014    99 H    0.971
    69   6 C    3.959 --    68 C    1.014   100 H    0.974   101 H    0.965
                            70 N    0.948
    70   7 N    3.243 --    71 C    1.166    69 C    0.948   102 H    0.927
                            72 C    0.123
    71   6 C    3.952 --    72 C    1.683    70 N    1.166   103 H    0.971
    72   6 C    3.954 --    71 C    1.683    67 C    1.102   104 H    0.973
                            70 N    0.123
    73   6 C    3.918 --    66 C    1.328    76 N    1.197    74 C    1.182
    74   6 C    3.960 --    75 C    1.636    73 C    1.182   105 H    0.973
    75   6 C    3.963 --    74 C    1.636    77 C    1.190   106 H    0.970
    76   7 N    3.345 --    77 C    1.229    73 C    1.197    59 Co   0.630
    77   6 C    3.910 --    78 C    1.264    76 N    1.229    75 C    1.190
    78   6 C    3.935 --    77 C    1.264    79 C    1.263   120 C    1.180
    79   6 C    3.910 --    78 C    1.263    83 N    1.229    80 C    1.190
    80   6 C    3.963 --    81 C    1.636    79 C    1.190   107 H    0.971
    81   6 C    3.960 --    80 C    1.636    82 C    1.183   108 H    0.973
    82   6 C    3.918 --    84 C    1.327    83 N    1.197    81 C    1.183
    83   7 N    3.345 --    79 C    1.229    82 C    1.197    59 Co   0.631
    84   6 C    3.934 --    82 C    1.327    91 C    1.318    85 C    1.031
    85   6 C    3.985 --    86 C    1.755    90 C    1.102    84 C    1.031
    86   6 C    3.954 --    85 C    1.755    87 C    1.014   109 H    0.971
    87   6 C    3.959 --    86 C    1.014   110 H    0.975   111 H    0.965
                            88 N    0.948
    88   7 N    3.242 --    89 C    1.165    87 C    0.948   112 H    0.927
                            90 C    0.122
    89   6 C    3.952 --    90 C    1.684    88 N    1.165   113 H    0.971
    90   6 C    3.955 --    89 C    1.684    85 C    1.102   114 H    0.973
                            88 N    0.122
    91   6 C    3.923 --    84 C    1.318    95 N    1.214    92 C    1.177
    92   6 C    3.964 --    93 C    1.647    91 C    1.177   115 H    0.974
    93   6 C    3.960 --    92 C    1.647    94 C    1.176   116 H    0.976
    94   6 C    3.928 --    60 C    1.364    95 N    1.202    93 C    1.176
    95   7 N    3.341 --    91 C    1.214    94 C    1.202    59 Co   0.633
    96   1 H    1.000 --    60 C    0.970
    97   1 H    0.998 --    62 C    0.976
    98   1 H    1.006 --    63 C    0.974
    99   1 H    1.004 --    68 C    0.971
   100   1 H    1.016 --    69 C    0.974
   101   1 H    1.004 --    69 C    0.965
   102   1 H    0.963 --    70 N    0.927
   103   1 H    1.001 --    71 C    0.971
   104   1 H    1.004 --    72 C    0.973
   105   1 H    1.005 --    74 C    0.973
   106   1 H    1.005 --    75 C    0.970
   107   1 H    1.005 --    80 C    0.971
   108   1 H    1.005 --    81 C    0.973
   109   1 H    1.004 --    86 C    0.971
   110   1 H    1.016 --    87 C    0.975
   111   1 H    1.004 --    87 C    0.965
   112   1 H    0.963 --    88 N    0.927
   113   1 H    1.001 --    89 C    0.971
   114   1 H    1.004 --    90 C    0.973
   115   1 H    1.006 --    92 C    0.974
   116   1 H    0.998 --    93 C    0.976
   117   6 C    3.927 --   118 C    2.557    20 C    1.192
   118   6 C    3.927 --   117 C    2.557   122 C    1.191
   119   6 C    3.932 --   120 C    2.568   140 C    1.184
   120   6 C    3.924 --   119 C    2.568    78 C    1.180
   121  27 Co   3.001 --   157 N    0.624   138 N    0.622   127 N    0.622
                           145 N    0.621
   122   6 C    3.917 --   156 C    1.262   123 C    1.247   118 C    1.191
   123   6 C    3.911 --   122 C    1.247   127 N    1.242   124 C    1.195
   124   6 C    3.961 --   125 C    1.631   123 C    1.195   158 H    0.969
   125   6 C    3.959 --   124 C    1.631   126 C    1.183   159 H    0.973
   126   6 C    3.919 --   128 C    1.333   127 N    1.190   125 C    1.183
   127   7 N    3.333 --   123 C    1.242   126 C    1.190   121 Co   0.622
   128   6 C    3.923 --   126 C    1.333   135 C    1.307   129 C    1.032
   129   6 C    3.984 --   130 C    1.749   134 C    1.104   128 C    1.032
   130   6 C    3.953 --   129 C    1.749   131 C    1.016   160 H    0.971
   131   6 C    3.959 --   130 C    1.016   162 H    0.973   161 H    0.965
                           132 N    0.948
   132   7 N    3.246 --   133 C    1.167   131 C    0.948   163 H    0.927
                           134 C    0.123
   133   6 C    3.951 --   134 C    1.682   132 N    1.167   164 H    0.971
   134   6 C    3.954 --   133 C    1.682   129 C    1.104   165 H    0.973
                           132 N    0.123
   135   6 C    3.915 --   128 C    1.307   138 N    1.210   136 C    1.188
   136   6 C    3.961 --   137 C    1.630   135 C    1.188   166 H    0.973
   137   6 C    3.960 --   136 C    1.630   139 C    1.192   167 H    0.970
   138   7 N    3.334 --   139 C    1.223   135 C    1.210   121 Co   0.622
   139   6 C    3.911 --   140 C    1.268   138 N    1.223   137 C    1.192
   140   6 C    3.916 --   139 C    1.268   141 C    1.250   119 C    1.184
   141   6 C    3.913 --   140 C    1.250   145 N    1.240   142 C    1.196
   142   6 C    3.961 --   143 C    1.628   141 C    1.196   168 H    0.971
   143   6 C    3.959 --   142 C    1.628   144 C    1.185   169 H    0.973
   144   6 C    3.918 --   146 C    1.327   145 N    1.193   143 C    1.185
   145   7 N    3.334 --   141 C    1.240   144 C    1.193   121 Co   0.621
   146   6 C    3.923 --   144 C    1.327   153 C    1.312   147 C    1.034
   147   6 C    3.984 --   148 C    1.750   152 C    1.102   146 C    1.034
   148   6 C    3.952 --   147 C    1.750   149 C    1.015   170 H    0.971
   149   6 C    3.959 --   148 C    1.015   172 H    0.974   171 H    0.964
                           150 N    0.948
   150   7 N    3.245 --   151 C    1.167   149 C    0.948   173 H    0.927
                           152 C    0.123
   151   6 C    3.951 --   152 C    1.682   150 N    1.167   174 H    0.970
   152   6 C    3.954 --   151 C    1.682   147 C    1.102   175 H    0.973
                           150 N    0.123
   153   6 C    3.914 --   146 C    1.312   157 N    1.205   154 C    1.188
   154   6 C    3.961 --   155 C    1.631   153 C    1.188   176 H    0.973
   155   6 C    3.960 --   154 C    1.631   156 C    1.192   177 H    0.968
   156   6 C    3.910 --   122 C    1.262   157 N    1.227   155 C    1.192
   157   7 N    3.334 --   156 C    1.227   153 C    1.205   121 Co   0.624
   158   1 H    1.005 --   124 C    0.969
   159   1 H    1.007 --   125 C    0.973
   160   1 H    1.004 --   130 C    0.971
   161   1 H    1.005 --   131 C    0.965
   162   1 H    1.015 --   131 C    0.973
   163   1 H    0.962 --   132 N    0.927
   164   1 H    1.001 --   133 C    0.971
   165   1 H    1.003 --   134 C    0.973
   166   1 H    1.004 --   136 C    0.973
   167   1 H    1.004 --   137 C    0.970
   168   1 H    1.004 --   142 C    0.971
   169   1 H    1.006 --   143 C    0.973
   170   1 H    1.004 --   148 C    0.971
   171   1 H    1.004 --   149 C    0.964
   172   1 H    1.016 --   149 C    0.974
   173   1 H    0.962 --   150 N    0.927
   174   1 H    1.001 --   151 C    0.970
   175   1 H    1.003 --   152 C    0.973
   176   1 H    1.004 --   154 C    0.973
   177   1 H    1.005 --   155 C    0.968
 ---------------------------------------------------------------------------

           -------------------------------------------------
          | TOTAL ENERGY             -299.931417754241 Eh   |
          | GRADIENT NORM               0.000658590567 Eh/α |
          | HOMO-LUMO GAP               0.006270466939 eV   |
           -------------------------------------------------

 * finished run on 2022/07/29 at 23:36:01.097
