   * xtb version 6.5.1 (b24c23e) compiled by 'conda@728c89f4b128' on 2022-07-12
          program call               : xtb Cu_BSA_C6_3.xyz --gfn 1 --opt -T 48

   ID    Z sym.   atoms
    1   29 Cu     1, 65, 141
    2    6 C      2-6, 8-12, 17-21, 23-28, 30-34, 39-44, 66-70, 72-76, 81-85,
                  87-92, 94-98, 103-108, 129-140, 142-146, 148-152, 157-161,
                  163-168, 170-174, 179-184
    3    7 N      7, 22, 29, 45, 71, 86, 93, 109, 147, 162, 169, 185
    4   16 S      13, 35, 77, 99, 153, 175
    5    8 O      14-16, 36-38, 78-80, 100-102, 154-156, 176-178
    6    1 H      46-64, 110-128, 186-203

          :  Hamiltonian                  GFN1-xTB          :
 * total energy  :  -415.3762392 Eh     change       -0.3358309E-08 Eh
 * total energy  :  -415.7192658 Eh     change       -0.3430267E+00 Eh
 * total energy  :  -415.8745544 Eh     change       -0.1552885E+00 Eh
 * total energy  :  -415.9730813 Eh     change       -0.9852697E-01 Eh
 * total energy  :  -416.0490315 Eh     change       -0.7595014E-01 Eh
 * total energy  :  -416.1005172 Eh     change       -0.5148568E-01 Eh
 * total energy  :  -416.1290959 Eh     change       -0.2857873E-01 Eh
 * total energy  :  -416.1504725 Eh     change       -0.2137658E-01 Eh
 * total energy  :  -416.1652375 Eh     change       -0.1476503E-01 Eh
 * total energy  :  -416.1744756 Eh     change       -0.9238150E-02 Eh
 * total energy  :  -416.2457227 Eh     change       -0.1485432E-04 Eh
 * total energy  :  -416.2457421 Eh     change       -0.1938043E-04 Eh
 * total energy  :  -416.2457360 Eh     change        0.6067642E-05 Eh
 * total energy  :  -416.2457485 Eh     change       -0.1247125E-04 Eh
 * total energy  :  -416.2457569 Eh     change       -0.8442753E-05 Eh
 * total energy  :  -416.2457647 Eh     change       -0.7849972E-05 Eh
 * total energy  :  -416.2457778 Eh     change       -0.1306313E-04 Eh
 * total energy  :  -416.2457867 Eh     change       -0.8935273E-05 Eh
 * total energy  :  -416.2457906 Eh     change       -0.3839437E-05 Eh
   *** GEOMETRY OPTIMIZATION CONVERGED AFTER 68 ITERATIONS ***

 final structure:
================
203
 xtb: 6.5.1 (b24c23e)
Cu          31.42873551121888        0.05493507043787        0.01414284025175
C           28.02354815592562        0.11511225162779        0.06256916145413
C           28.65893267263568       -0.19820921871356        1.25460982413347
C           27.98430552616626       -0.53322858791931        2.47644601340700
C           28.94326310769448       -0.77342186193660        3.40414029853767
C           30.21361465587202       -0.57452707721808        2.75962538380472
N           30.00975073760136       -0.23504411832988        1.45351306706761
C           31.45975982650197       -0.72564833369582        3.37202108308105
C           31.47744152970157       -1.07071736406451        4.81487201413741
C           30.93146529996174       -0.19598307620117        5.75743276899988
C           30.95502036991747       -0.51118457932611        7.10611070284464
C           31.52405585870003       -1.71185639350078        7.49861336606151
S           31.56733014703456       -2.11264648194397        9.20455595640587
O           31.49136110185870       -0.92838224953906       10.00835184476112
O           30.14130409878400       -2.88461514189781        9.30100460069038
O           32.60719289754601       -3.06012228192803        9.48001033554525
C           32.07289072873282       -2.60007141376761        6.58792776269969
C           32.04825577051628       -2.27219287580794        5.24250148902921
C           32.69350105899374       -0.57784859901275        2.73423584950178
C           33.97095263996064       -0.66621927607490        3.38411246947498
C           34.91596916454409       -0.45663692881834        2.43334588174209
N           32.88010891659589       -0.30295930570706        1.40618085656104
C           34.22391136627142       -0.23178848861563        1.19964860764667
C           34.85814745059522        0.01083763777909       -0.03054301653262
C           34.19911460555629        0.26630168924115       -1.24493142668080
C           34.86447848980999        0.47021412032799       -2.49670137651354
C           33.90046699576882        0.69693824426558       -3.42436967579972
C           32.63838135156622        0.64207935506708       -2.74168405280725
N           32.85253119532572        0.36845087037463       -1.41752602928175
C           31.39224905541236        0.81918630523360       -3.34720375452207
C           31.37869008785285        1.14917445218979       -4.79362946455511
C           30.77546329942532        0.28350160310744       -5.70920755508132
C           30.76492833729678        0.58516741452495       -7.06120766474235
C           31.36080651319732        1.76200963325243       -7.48445444918146
S           31.34372947443611        2.15522898226159       -9.19290755711464
O           31.47725695379171        3.56826695069239       -9.39875728133558
O           32.75315091379280        1.46525196415924       -9.61495197621459
O           30.27880534826133        1.46347527883793       -9.85533221511813
C           31.96046245066148        2.64413377246396       -6.60010007078369
C           31.96855604670414        2.33031535792250       -5.25118048801929
C           30.15955062906574        0.71271128094198       -2.69910029953864
C           28.87915255382773        0.95301421831454       -3.30879665635438
C           27.93922381005142        0.75512904293145       -2.35218570910010
C           28.63594285209023        0.40251621341916       -1.14783583939479
N           29.98106815390970        0.38898174047403       -1.38525753702360
H           26.93879488541083        0.13554645435388        0.07801537913918
H           26.91321820791719       -0.58410912149868        2.59220750387780
H           28.81026736511963       -1.07032711184424        4.43200712041716
H           30.50293168215273        0.74423202817137        5.43049204494293
H           30.54611927660534        0.16502904005719        7.84631833067444
H           29.99606696346722       -3.20632897562394       10.19904345644265
H           32.51436839613449       -3.52758406998659        6.93023757965612
H           32.46407835236135       -2.95685911028508        4.51251193332803
H           34.12157715516536       -0.84952040004887        4.43558392836830
H           35.98789312650754       -0.44640747812330        2.54863717619842
H           35.93266271347346        0.43494716427544       -2.63899389881071
H           34.02866478333974        0.87258303402609       -4.48014655130063
H           30.32510870692369       -0.63782254521520       -5.35863761976293
H           30.30047349136867       -0.07879278140600       -7.77937269929228
H           33.03903109175105        1.79838539086957      -10.47421739023098
H           32.40565124914004        3.56153893755766       -6.96421784534370
H           32.42185451497600        3.01212380959232       -4.54111404651726
H           28.72725558103721        1.24769277413205       -4.33464985002689
H           26.86788350136658        0.84499673169233       -2.43779601267984
Cu          63.51572634998769        0.04518130917457       -0.00477931365071
C           66.92083245405350        0.13373769641124       -0.02685261496061
C           66.28475586635558        0.28202021116280       -1.24990232244550
C           66.95908764808007        0.42871647050218       -2.50833685464894
C           65.99985892260626        0.54253548582567       -3.45952899856718
C           64.72963724733717        0.47825368292130       -2.78810763342474
N           64.93365564708725        0.31219290960856       -1.44875347098412
C           63.48372450734797        0.55084090051148       -3.41481317720845
C           63.46647518369490        0.76382606834825       -4.88307998011049
C           63.99816151251174        1.93292969636877       -5.43274024471526
C           63.97515111801363        2.13999842032075       -6.80220330639853
C           63.42124157815039        1.16285584243079       -7.61323771220647
S           63.37795407452330        1.42312603042625       -9.34625925976736
O           63.43766132083303        2.82208816559532       -9.65172580046526
O           64.81173182700566        0.75763951151590       -9.72041851846016
O           62.34875611765758        0.63334619584673       -9.95622689506590
C           62.88708466069132       -0.00711725399340       -7.09813165777694
C           62.91091605215490       -0.20120838862686       -5.72694698465756
C           62.25052887204100        0.43983794503940       -2.76899454198602
C           60.97240566321445        0.58004649723927       -3.40811150670066
C           60.02787601020032        0.41978672262333       -2.44739001970785
N           62.06486948189385        0.20999157725154       -1.43207724472181
C           60.72083747027546        0.18888870466700       -1.21540537679956
C           60.08699131714698       -0.02748017240698        0.01975069498477
C           60.74643106895034       -0.22059404207447        1.24518778758346
C           60.08129547209361       -0.48310460517671        2.48603925147689
C           61.04555021032579       -0.60958755355931        3.43229229799954
C           62.30747515044354       -0.41486215201616        2.77561638978904
N           62.09316856431581       -0.18800237200183        1.44245515385324
C           63.55373264899768       -0.47457282666134        3.40285001718767
C           63.57006004022288       -0.70068313126603        4.86913923186540
C           64.17164296616390       -1.84504449525569        5.39844513325983
C           64.18811069770786       -2.06271354212678        6.76636309209538
C           63.59973242116671       -1.12229390686598        7.59616242894953
S           63.62484010732532       -1.38653121332643        9.32924516242909
O           63.49971005547894       -0.14867474727835       10.04254517004990
O           62.21288761591226       -2.17766303887368        9.47433490934719
O           64.68821343643317       -2.27804495695780        9.68374866510915
C           63.00123229975147        0.02538869055705        7.10185844871450
C           62.98713934649631        0.23068046007756        5.73218962798623
C           64.78583133642672       -0.33661903798649        2.75978799877371
C           66.06626057711374       -0.33710656629054        3.41483947247316
C           67.00578238713430       -0.16640203331667        2.45265568666733
C           66.30872401438656       -0.05023871727456        1.20348713931113
N           64.96362471248362       -0.15314164575909        1.41897262869109
H           68.00544060804123        0.16307645069559       -0.03341037860403
H           68.03026682173241        0.43228227190921       -2.63384772037348
H           66.13258078980024        0.64898922256080       -4.52413114656265
H           64.41504799065616        2.69049913499299       -4.77941516445663
H           64.37295978004367        3.04790672028401       -7.23787525377995
H           64.94366478002685        0.76514031056520      -10.67625143439245
H           62.45725816648316       -0.74752023029101       -7.76101096633002
H           62.50644563262145       -1.11331852556697       -5.30386600352761
H           60.82092036436548        0.78971217683649       -4.45450459447289
H           58.95561085099536        0.46013436026162       -2.55229997990106
H           59.01307306863649       -0.56648454687999        2.60621909632210
H           60.91772609957602       -0.82858119692178        4.47997489119676
H           64.61645096597397       -2.57370809526443        4.73080002759840
H           64.65176498256761       -2.94599340944407        7.18725585907941
H           61.92503196071882       -2.17416982154069       10.39528033152230
H           62.56192254602323        0.74571156456670        7.78049680032156
H           62.53498429146248        1.12769018770955        5.32544257573399
H           66.21840761120818       -0.44173456665375        4.47698176290047
H           68.07704836369298       -0.11286567413646        2.56520635359728
C           40.06181989008257       -0.02631375297650       -0.06604912923040
C           38.83435278424789       -0.02445396656881       -0.06057784805347
C           37.48852323717881       -0.01572028488966       -0.05504913995882
C           36.26555743206865       -0.00333678995583       -0.04611530574775
C           41.40754870251884       -0.03206044503970       -0.06269153426235
C           42.63074648600274       -0.03413104487635       -0.05993994781213
C           56.11100382372570       -0.07533673802083        0.03103184219743
C           54.88355522048243       -0.08127205168765        0.02576493375254
C           53.53787157987016       -0.08101339948312        0.02089495871117
C           52.31474913763116       -0.07745078574947        0.01255633468701
C           57.45678392505070       -0.06557100119241        0.03196200607241
C           58.67967480977295       -0.05111772563062        0.02900026288197
Cu          47.47295500009262       -0.05253982178599       -0.02894009802374
C           44.03769923047827       -0.03779822113700       -0.05366265133286
C           44.68519584875224        1.03152907505469        0.58921321296754
C           44.00696187638690        2.09716409950458        1.26462338333289
C           44.96276763458501        2.93424127449397        1.74141455234625
C           46.23212147686041        2.38779712239388        1.35205667333807
N           46.03039948559668        1.22482155472347        0.65898799593925
C           47.47387627751615        2.94935654657297        1.65714169708120
C           47.47491921617888        4.24393658922620        2.38240741051936
C           48.04607287134219        4.33861578583561        3.65379081006684
C           48.05055539237316        5.54463073549125        4.33521430112344
C           47.48095249172481        6.65256142094138        3.72928518357775
S           47.49415193124207        8.18572518747736        4.57996286729337
O           47.41567395253764        9.28558248703892        3.66280672920719
O           46.05334230390751        8.06576382964153        5.32055104811555
O           48.52306885081649        8.19534271710085        5.57620233415199
C           46.91184844523115        6.59153524987686        2.46746713779320
C           46.90915312689987        5.37948380091002        1.79717751198305
C           48.71527325299095        2.39510220771194        1.33746925589796
C           49.98520742026859        3.01080059216737        1.60171128234237
C           50.94038216365721        2.16522457825998        1.13906825457134
N           48.91604274243058        1.19668435831886        0.70747345608155
C           50.26121881876309        1.03406180681882        0.58154875617860
C           50.90787096354243       -0.07072202867150        0.00095944557655
C           50.25996493674064       -1.16845995963047       -0.59144921018084
C           50.93677010504165       -2.30567410779635       -1.13939804500917
C           49.98096205618190       -3.13955522552484       -1.62163208063339
C           48.71325407100995       -2.51085498034277       -1.37824415823687
N           48.91558171911790       -1.31638958714029       -0.74136264418859
C           47.47198271697540       -3.05093071818611       -1.72156252274507
C           47.47245815145735       -4.34181446389039       -2.45342640759705
C           48.06163263040125       -4.43398748981549       -3.71674995533416
C           48.06450090979401       -5.63558318267181       -4.40584936712898
C           47.47524302899628       -6.74165496222870       -3.81547358338417
S           47.48499027539795       -8.26882273773282       -4.67672317025161
O           47.37493549983284       -9.37405833070918       -3.76940843579455
O           46.06026178009112       -8.12353346707830       -5.44380433595606
O           48.53218487200453       -8.28531324637126       -5.65373222046481
C           46.88868964676212       -6.68328099338218       -2.56157120445343
C           46.88772372630432       -5.47548556912037       -1.88356478637416
C           46.23090971693934       -2.47833022929168       -1.43504630222361
C           44.96269941738112       -3.01225194658239       -1.84488042506331
C           44.00734401461941       -2.16871004004978       -1.37859960236824
C           44.68498689121945       -1.11108357189662       -0.69020821369597
N           46.02929057845241       -1.31559547694762       -0.74156565390418
H           42.93656450655449        2.18155392031023        1.36266690415658
H           44.82449065421482        3.83471193447018        2.31761250132707
H           48.47729149824135        3.45728205261317        4.11403340029505
H           48.49121113827389        5.62919860286384        5.32059315875421
H           45.76453321280031        8.93442889403834        5.62558150211162
H           46.48664874240675        7.48040464107372        2.01853759451171
H           46.48021630851859        5.31279841145789        0.80414947949600
H           50.12468355705210        3.97263871959595        2.06784750718637
H           52.01089245248527        2.29154138268614        1.16109936732991
H           52.00605932040641       -2.44370301364460       -1.14274320303862
H           50.11823608179851       -4.10155375686482       -2.08811062250385
H           48.50812751953628       -3.55391242653159       -4.16465131697445
H           48.51870164693385       -5.71824601025434       -5.38521467340618
H           45.77171284534261       -8.98333909601965       -5.77318040919752
H           46.44849460998145       -7.57083108753088       -2.12466286372650
H           46.44495090486691       -5.41089279928259       -0.89649330363517
H           44.82492104058784       -3.90954714624931       -2.42613814827328
H           42.93780295028659       -2.24355459383344       -1.49253716303831

          :  Hamiltonian                  GFN1-xTB          :
         :: total energy            -416.245790586120 Eh    ::
         :: gradient norm              0.000804677666 Eh/a0 ::
         :: HOMO-LUMO gap              0.000779396326 eV    ::
         :: SCC energy              -421.859133536505 Eh    ::
         :: repulsion energy           5.799265405774 Eh    ::

    * Orbital Energies and Occupations

         #    Occupation            Energy/Eh            Energy/eV
      -------------------------------------------------------------
         1        2.0000           -1.0364506             -28.2033
       ...           ...                  ...                  ...
       351        2.0000           -0.4259881             -11.5917
       352        2.0000           -0.4259472             -11.5906
       353        2.0000           -0.4253782             -11.5751
       354        2.0000           -0.4253400             -11.5741
       355        2.0000           -0.4247170             -11.5571
       356        2.0000           -0.4139911             -11.2653
       357        2.0000           -0.4138813             -11.2623
       358        2.0000           -0.4138329             -11.2610
       359        2.0000           -0.4051096             -11.0236
       360        2.0000           -0.4040328             -10.9943
       361        2.0000           -0.3996450             -10.8749
       362        1.0270           -0.3737038             -10.1690
       363        0.9932           -0.3736314             -10.1670 (HOMO)
       364        0.9798           -0.3736028             -10.1662 (LUMO)
       365                         -0.3552014              -9.6655
       366                         -0.3506736              -9.5423
       367                         -0.3493181              -9.5054
       368                         -0.3483469              -9.4790
       369                         -0.3481239              -9.4729
       370                         -0.3479293              -9.4676
       371                         -0.3248875              -8.8406
       372                         -0.3198997              -8.7049
       373                         -0.3196013              -8.6968
       374                         -0.3093898              -8.4189
       ...                                ...                  ...
       745                          1.5656927              42.6047
      -------------------------------------------------------------
                  HL-Gap            0.0000286 Eh            0.0008 eV

Wiberg/Mayer (AO) data.
largest (>0.10) Wiberg bond orders for each atom

     #   Z sym  total        # sym  WBO       # sym  WBO       # sym  WBO
 ---------------------------------------------------------------------------
     1  29 Cu   2.184 --    45 N    0.505     7 N    0.504    22 N    0.501
                            29 N    0.501
     2   6 C    3.932 --    44 C    1.363     3 C    1.362    46 H    0.971
     3   6 C    3.915 --     2 C    1.362     7 N    1.229     4 C    1.169
     4   6 C    3.955 --     5 C    1.658     3 C    1.169    47 H    0.975
     5   6 C    3.958 --     4 C    1.658     6 C    1.170    48 H    0.973
     6   6 C    3.915 --     8 C    1.320     7 N    1.240     5 C    1.170
     7   7 N    3.244 --     6 C    1.240     3 C    1.229     1 Cu   0.504
     8   6 C    3.934 --    19 C    1.324     6 C    1.320     9 C    1.029
     9   6 C    3.986 --    10 C    1.391    18 C    1.390     8 C    1.029
    10   6 C    3.987 --    11 C    1.450     9 C    1.391    49 H    0.971
                            17 C    0.106
    11   6 C    3.989 --    10 C    1.450    12 C    1.407    50 H    0.967
                            18 C    0.106
    12   6 C    3.930 --    11 C    1.407    17 C    1.407    13 S    0.754
    13  16 S    5.264 --    14 O    1.720    16 O    1.718    15 O    1.012
                            12 C    0.754
    14   8 O    2.078 --    13 S    1.720    16 O    0.139
    15   8 O    2.087 --    13 S    1.012    51 H    0.828
    16   8 O    2.077 --    13 S    1.718    14 O    0.139
    17   6 C    3.989 --    18 C    1.450    12 C    1.407    52 H    0.967
                            10 C    0.106
    18   6 C    3.987 --    17 C    1.450     9 C    1.390    53 H    0.971
                            11 C    0.106
    19   6 C    3.909 --     8 C    1.324    22 N    1.225    20 C    1.177
    20   6 C    3.955 --    21 C    1.645    19 C    1.177    54 H    0.973
    21   6 C    3.957 --    20 C    1.645    23 C    1.185    55 H    0.973
    22   7 N    3.248 --    23 C    1.254    19 C    1.225     1 Cu   0.501
    23   6 C    3.897 --    24 C    1.263    22 N    1.254    21 C    1.185
    24   6 C    3.942 --    25 C    1.263    23 C    1.263   132 C    1.181
    25   6 C    3.897 --    24 C    1.263    29 N    1.254    26 C    1.185
    26   6 C    3.957 --    27 C    1.644    25 C    1.185    56 H    0.974
    27   6 C    3.955 --    26 C    1.644    28 C    1.178    57 H    0.973
    28   6 C    3.909 --    30 C    1.324    29 N    1.225    27 C    1.178
    29   7 N    3.248 --    25 C    1.254    28 C    1.225     1 Cu   0.501
    30   6 C    3.933 --    28 C    1.324    41 C    1.320    31 C    1.029
    31   6 C    3.986 --    32 C    1.392    40 C    1.390    30 C    1.029
    32   6 C    3.987 --    33 C    1.449    31 C    1.392    58 H    0.971
                            39 C    0.106
    33   6 C    3.989 --    32 C    1.449    34 C    1.408    59 H    0.967
                            40 C    0.106
    34   6 C    3.930 --    33 C    1.408    39 C    1.406    35 S    0.754
    35  16 S    5.265 --    38 O    1.727    36 O    1.713    37 O    1.013
                            34 C    0.754
    36   8 O    2.072 --    35 S    1.713    38 O    0.138
    37   8 O    2.087 --    35 S    1.013    60 H    0.828
    38   8 O    2.085 --    35 S    1.727    36 O    0.138
    39   6 C    3.989 --    40 C    1.451    34 C    1.406    61 H    0.967
                            32 C    0.106
    40   6 C    3.987 --    39 C    1.451    31 C    1.390    62 H    0.971
                            33 C    0.106
    41   6 C    3.915 --    30 C    1.320    45 N    1.240    42 C    1.170
    42   6 C    3.958 --    43 C    1.659    41 C    1.170    63 H    0.973
    43   6 C    3.955 --    42 C    1.659    44 C    1.169    64 H    0.975
    44   6 C    3.915 --     2 C    1.363    45 N    1.229    43 C    1.169
    45   7 N    3.245 --    41 C    1.240    44 C    1.229     1 Cu   0.505
    46   1 H    1.001 --     2 C    0.971
    47   1 H    0.997 --     4 C    0.975
    48   1 H    1.003 --     5 C    0.973
    49   1 H    1.003 --    10 C    0.971
    50   1 H    0.999 --    11 C    0.967
    51   1 H    0.854 --    15 O    0.828
    52   1 H    1.000 --    17 C    0.967
    53   1 H    1.003 --    18 C    0.971
    54   1 H    1.003 --    20 C    0.973
    55   1 H    1.001 --    21 C    0.973
    56   1 H    1.001 --    26 C    0.974
    57   1 H    1.003 --    27 C    0.973
    58   1 H    1.003 --    32 C    0.971
    59   1 H    0.999 --    33 C    0.967
    60   1 H    0.855 --    37 O    0.828
    61   1 H    1.000 --    39 C    0.967
    62   1 H    1.003 --    40 C    0.971
    63   1 H    1.003 --    42 C    0.973
    64   1 H    0.997 --    43 C    0.975
    65  29 Cu   2.192 --   109 N    0.507    71 N    0.506    86 N    0.503
                            93 N    0.503
    66   6 C    3.932 --   108 C    1.363    67 C    1.362   110 H    0.971
    67   6 C    3.915 --    66 C    1.362    71 N    1.229    68 C    1.169
    68   6 C    3.955 --    69 C    1.658    67 C    1.169   111 H    0.975
    69   6 C    3.958 --    68 C    1.658    70 C    1.170   112 H    0.973
    70   6 C    3.914 --    72 C    1.320    71 N    1.239    69 C    1.170
    71   7 N    3.245 --    70 C    1.239    67 C    1.229    65 Cu   0.506
    72   6 C    3.934 --    83 C    1.324    70 C    1.320    73 C    1.028
    73   6 C    3.986 --    74 C    1.391    82 C    1.391    72 C    1.028
    74   6 C    3.987 --    75 C    1.450    73 C    1.391   113 H    0.971
                            81 C    0.106
    75   6 C    3.989 --    74 C    1.450    76 C    1.407   114 H    0.967
                            82 C    0.106
    76   6 C    3.930 --    75 C    1.407    81 C    1.407    77 S    0.754
    77  16 S    5.264 --    78 O    1.721    80 O    1.718    79 O    1.012
                            76 C    0.754
    78   8 O    2.079 --    77 S    1.721    80 O    0.139
    79   8 O    2.087 --    77 S    1.012   115 H    0.828
    80   8 O    2.077 --    77 S    1.718    78 O    0.139
    81   6 C    3.989 --    82 C    1.450    76 C    1.407   116 H    0.967
                            74 C    0.106
    82   6 C    3.987 --    81 C    1.450    73 C    1.391   117 H    0.971
                            75 C    0.106
    83   6 C    3.908 --    72 C    1.324    86 N    1.224    84 C    1.177
    84   6 C    3.955 --    85 C    1.645    83 C    1.177   118 H    0.973
    85   6 C    3.957 --    84 C    1.645    87 C    1.185   119 H    0.973
    86   7 N    3.249 --    87 C    1.253    83 C    1.224    65 Cu   0.503
    87   6 C    3.897 --    88 C    1.264    86 N    1.253    85 C    1.185
    88   6 C    3.942 --    89 C    1.264    87 C    1.264   140 C    1.181
    89   6 C    3.897 --    88 C    1.264    93 N    1.253    90 C    1.185
    90   6 C    3.957 --    91 C    1.644    89 C    1.185   120 H    0.973
    91   6 C    3.955 --    90 C    1.644    92 C    1.178   121 H    0.973
    92   6 C    3.909 --    94 C    1.324    93 N    1.225    91 C    1.178
    93   7 N    3.249 --    89 C    1.253    92 C    1.225    65 Cu   0.503
    94   6 C    3.934 --    92 C    1.324   105 C    1.320    95 C    1.028
    95   6 C    3.986 --    96 C    1.391   104 C    1.390    94 C    1.028
    96   6 C    3.987 --    97 C    1.449    95 C    1.391   122 H    0.971
                           103 C    0.106
    97   6 C    3.989 --    96 C    1.449    98 C    1.407   123 H    0.967
                           104 C    0.106
    98   6 C    3.930 --    97 C    1.407   103 C    1.407    99 S    0.754
    99  16 S    5.266 --   102 O    1.727   100 O    1.713   101 O    1.013
                            98 C    0.754
   100   8 O    2.072 --    99 S    1.713   102 O    0.138
   101   8 O    2.088 --    99 S    1.013   124 H    0.828
   102   8 O    2.085 --    99 S    1.727   100 O    0.138
   103   6 C    3.989 --   104 C    1.450    98 C    1.407   125 H    0.967
                            96 C    0.106
   104   6 C    3.987 --   103 C    1.450    95 C    1.390   126 H    0.971
                            97 C    0.106
   105   6 C    3.914 --    94 C    1.320   109 N    1.239   106 C    1.170
   106   6 C    3.958 --   107 C    1.658   105 C    1.170   127 H    0.973
   107   6 C    3.955 --   106 C    1.658   108 C    1.169   128 H    0.975
   108   6 C    3.915 --    66 C    1.363   109 N    1.228   107 C    1.169
   109   7 N    3.245 --   105 C    1.239   108 C    1.228    65 Cu   0.507
   110   1 H    1.001 --    66 C    0.971
   111   1 H    0.997 --    68 C    0.975
   112   1 H    1.003 --    69 C    0.973
   113   1 H    1.003 --    74 C    0.971
   114   1 H    0.999 --    75 C    0.967
   115   1 H    0.854 --    79 O    0.828
   116   1 H    0.999 --    81 C    0.967
   117   1 H    1.003 --    82 C    0.971
   118   1 H    1.003 --    84 C    0.973
   119   1 H    1.001 --    85 C    0.973
   120   1 H    1.001 --    90 C    0.973
   121   1 H    1.003 --    91 C    0.973
   122   1 H    1.003 --    96 C    0.971
   123   1 H    0.999 --    97 C    0.967
   124   1 H    0.855 --   101 O    0.828
   125   1 H    0.999 --   103 C    0.967
   126   1 H    1.003 --   104 C    0.971
   127   1 H    1.003 --   106 C    0.973
   128   1 H    0.997 --   107 C    0.975
   129   6 C    3.925 --   130 C    2.378   133 C    1.327   132 C    0.190
   130   6 C    3.924 --   129 C    2.378   131 C    1.326   134 C    0.190
   131   6 C    3.936 --   132 C    2.460   130 C    1.326
   132   6 C    3.890 --   131 C    2.460    24 C    1.181   129 C    0.190
   133   6 C    3.934 --   134 C    2.458   129 C    1.327
   134   6 C    3.890 --   133 C    2.458   142 C    1.183   130 C    0.190
   135   6 C    3.924 --   136 C    2.378   139 C    1.326   138 C    0.190
   136   6 C    3.925 --   135 C    2.378   137 C    1.327   140 C    0.190
   137   6 C    3.934 --   138 C    2.458   136 C    1.327
   138   6 C    3.890 --   137 C    2.458   164 C    1.183   135 C    0.190
   139   6 C    3.936 --   140 C    2.460   135 C    1.326
   140   6 C    3.890 --   139 C    2.460    88 C    1.181   136 C    0.190
   141  29 Cu   2.154 --   162 N    0.497   169 N    0.497   147 N    0.496
                           185 N    0.496
   142   6 C    3.933 --   143 C    1.261   184 C    1.261   134 C    1.183
   143   6 C    3.898 --   142 C    1.261   147 N    1.257   144 C    1.185
   144   6 C    3.955 --   145 C    1.644   143 C    1.185   186 H    0.974
   145   6 C    3.956 --   144 C    1.644   146 C    1.178   187 H    0.973
   146   6 C    3.907 --   148 C    1.322   147 N    1.225   145 C    1.178
   147   7 N    3.242 --   143 C    1.257   146 C    1.225   141 Cu   0.496
   148   6 C    3.930 --   159 C    1.322   146 C    1.322   149 C    1.028
   149   6 C    3.986 --   150 C    1.391   158 C    1.390   148 C    1.028
   150   6 C    3.987 --   151 C    1.449   149 C    1.391   188 H    0.971
                           157 C    0.106
   151   6 C    3.989 --   150 C    1.449   152 C    1.408   189 H    0.967
                           158 C    0.106
   152   6 C    3.930 --   151 C    1.408   157 C    1.407   153 S    0.754
   153  16 S    5.266 --   156 O    1.727   154 O    1.713   155 O    1.014
                           152 C    0.754
   154   8 O    2.072 --   153 S    1.713   156 O    0.138
   155   8 O    2.088 --   153 S    1.014   190 H    0.828
   156   8 O    2.085 --   153 S    1.727   154 O    0.138
   157   6 C    3.989 --   158 C    1.451   152 C    1.407   191 H    0.967
                           150 C    0.106
   158   6 C    3.987 --   157 C    1.451   149 C    1.390   192 H    0.971
                           151 C    0.106
   159   6 C    3.907 --   148 C    1.322   162 N    1.225   160 C    1.178
   160   6 C    3.956 --   161 C    1.644   159 C    1.178   193 H    0.973
   161   6 C    3.955 --   160 C    1.644   163 C    1.185   194 H    0.974
   162   7 N    3.242 --   163 C    1.257   159 C    1.225   141 Cu   0.497
   163   6 C    3.897 --   164 C    1.261   162 N    1.257   161 C    1.185
   164   6 C    3.933 --   163 C    1.261   165 C    1.261   138 C    1.183
   165   6 C    3.897 --   164 C    1.261   169 N    1.257   166 C    1.185
   166   6 C    3.955 --   167 C    1.644   165 C    1.185   195 H    0.974
   167   6 C    3.956 --   166 C    1.644   168 C    1.178   196 H    0.973
   168   6 C    3.907 --   170 C    1.322   169 N    1.225   167 C    1.178
   169   7 N    3.242 --   165 C    1.257   168 C    1.225   141 Cu   0.497
   170   6 C    3.930 --   168 C    1.322   181 C    1.322   171 C    1.028
   171   6 C    3.986 --   172 C    1.391   180 C    1.391   170 C    1.028
   172   6 C    3.987 --   173 C    1.449   171 C    1.391   197 H    0.971
                           179 C    0.106
   173   6 C    3.989 --   172 C    1.449   174 C    1.407   198 H    0.967
                           180 C    0.106
   174   6 C    3.930 --   173 C    1.407   179 C    1.407   175 S    0.754
   175  16 S    5.266 --   178 O    1.727   176 O    1.713   177 O    1.013
                           174 C    0.754
   176   8 O    2.072 --   175 S    1.713   178 O    0.138
   177   8 O    2.088 --   175 S    1.013   199 H    0.828
   178   8 O    2.085 --   175 S    1.727   176 O    0.138
   179   6 C    3.989 --   180 C    1.450   174 C    1.407   200 H    0.967
                           172 C    0.106
   180   6 C    3.987 --   179 C    1.450   171 C    1.391   201 H    0.971
                           173 C    0.106
   181   6 C    3.907 --   170 C    1.322   185 N    1.225   182 C    1.178
   182   6 C    3.955 --   183 C    1.644   181 C    1.178   202 H    0.973
   183   6 C    3.955 --   182 C    1.644   184 C    1.185   203 H    0.974
   184   6 C    3.898 --   142 C    1.261   185 N    1.257   183 C    1.185
   185   7 N    3.242 --   184 C    1.257   181 C    1.225   141 Cu   0.496
   186   1 H    1.001 --   144 C    0.974
   187   1 H    1.003 --   145 C    0.973
   188   1 H    1.003 --   150 C    0.971
   189   1 H    0.999 --   151 C    0.967
   190   1 H    0.855 --   155 O    0.828
   191   1 H    0.999 --   157 C    0.967
   192   1 H    1.003 --   158 C    0.971
   193   1 H    1.003 --   160 C    0.973
   194   1 H    1.001 --   161 C    0.974
   195   1 H    1.001 --   166 C    0.974
   196   1 H    1.003 --   167 C    0.973
   197   1 H    1.003 --   172 C    0.971
   198   1 H    0.999 --   173 C    0.967
   199   1 H    0.855 --   177 O    0.828
   200   1 H    0.999 --   179 C    0.967
   201   1 H    1.003 --   180 C    0.971
   202   1 H    1.003 --   182 C    0.973
   203   1 H    1.001 --   183 C    0.974
 ---------------------------------------------------------------------------

           -------------------------------------------------
          | TOTAL ENERGY             -416.245790586120 Eh   |
          | GRADIENT NORM               0.000804677666 Eh/α |
          | HOMO-LUMO GAP               0.000779396326 eV   |
           -------------------------------------------------

 * finished run on 2022/07/30 at 13:46:41.410
