   * xtb version 6.5.1 (b24c23e) compiled by 'conda@728c89f4b128' on 2022-07-12
          program call               : xtb Co_m-CP_C4_2.xyz --gfn 1 --opt -T 48

   ID    Z sym.   atoms
    1   27 Co     1, 63
    2    6 C      2-6, 8-12, 15-20, 22-27, 29-35, 38-42, 64-68, 70-74, 77-82,
                  84-89, 91-97, 100-104, 125-128
    3    7 N      7, 21, 28, 43, 69, 83, 90, 105
    4    8 O      13, 14, 36, 37, 75, 76, 98, 99
    5    1 H      44-62, 106-124
########################################################################
[WARNING] Please study the warnings concerning your input carefully
-1- prog_main_parseArguments: Unknown option '-T' provided
########################################################################

          :  Hamiltonian                  GFN1-xTB          :
 * total energy  :  -241.4373643 Eh     change       -0.2669282E-08 Eh
 * total energy  :  -242.5370127 Eh     change       -0.1099648E+01 Eh
 * total energy  :  -242.6685407 Eh     change       -0.1315281E+00 Eh
 * total energy  :  -242.7443673 Eh     change       -0.7582655E-01 Eh
 * total energy  :  -242.7741027 Eh     change       -0.2973543E-01 Eh
 * total energy  :  -242.7893443 Eh     change       -0.1524158E-01 Eh
 * total energy  :  -242.7977461 Eh     change       -0.8401798E-02 Eh
 * total energy  :  -242.8028102 Eh     change       -0.5064105E-02 Eh
 * total energy  :  -242.8061781 Eh     change       -0.3367895E-02 Eh
 * total energy  :  -242.8084735 Eh     change       -0.2295424E-02 Eh
 * total energy  :  -242.8155812 Eh     change       -0.1217798E-04 Eh
 * total energy  :  -242.8155877 Eh     change       -0.6444267E-05 Eh
 * total energy  :  -242.8155955 Eh     change       -0.7830617E-05 Eh
 * total energy  :  -242.8156008 Eh     change       -0.5315514E-05 Eh
 * total energy  :  -242.8156067 Eh     change       -0.5900890E-05 Eh
 * total energy  :  -242.8156142 Eh     change       -0.7463871E-05 Eh
 * total energy  :  -242.8156212 Eh     change       -0.7065189E-05 Eh
 * total energy  :  -242.8156275 Eh     change       -0.6312836E-05 Eh
 * total energy  :  -242.8156302 Eh     change       -0.2692522E-05 Eh
   *** GEOMETRY OPTIMIZATION CONVERGED AFTER 68 ITERATIONS ***

 final structure:
================
128
 xtb: 6.5.1 (b24c23e)
Co          15.77889065263091       -0.00196126467529        0.11693489262859
C           12.41221235749804       -0.02034052040714        0.28762247271003
C           13.05066816083658        1.19140053343928        0.13207865905980
C           12.37059850365340        2.44484563688446        0.00872963309573
C           13.32162906485922        3.40743871916825        0.03756894489878
C           14.58067734181612        2.74085914255037        0.20317871880868
N           14.40905254031405        1.37960012087697        0.18501572345089
C           15.77693273012500        3.38741890302638        0.48112748915717
C           15.78655140449443        4.85950879751136        0.64360530787640
C           15.00244235048937        5.47175680388231        1.61719363710875
C           15.02455796895204        6.85698420202272        1.77449458822699
C           14.16967588217406        7.44971904345290        2.83393732981581
O           14.27685081803472        8.78309652342127        2.92521101188403
O           13.44167415126908        6.81547161544452        3.55383618245014
C           15.83254526724499        7.64161530986100        0.95181219465079
C           16.61201803517153        7.03451429103482       -0.02040177517151
C           16.59300712906698        5.65561882897107       -0.17373367456051
C           16.96667027503157        2.69067799122950        0.63922322153444
C           18.20553595264573        3.29056981424589        1.03311517556963
C           19.15563177544218        2.32986703638597        0.92872901516779
N           17.14887377881210        1.35849325654361        0.35190907554964
C           18.49468427229404        1.14893949490649        0.47202726862738
C           19.16921400356756       -0.00022340805270        0.05352404829692
C           18.48627137859330       -1.13481408992321       -0.39178056674164
C           19.13645432303330       -2.29143809382537       -0.92074994586845
C           18.17584242831118       -3.23074040705662       -1.09659771775159
C           16.94502295684594       -2.65024426303345       -0.65039847168616
N           17.13871949731912       -1.33599788038590       -0.28874754140350
C           15.76614884219316       -3.35912147712539       -0.47606203203483
C           15.75408416612069       -4.81771596291657       -0.73413679023516
C           16.60219699651383       -5.67134826142287       -0.02491873209367
C           16.58810029920513       -7.03877039798320       -0.26188997821249
C           15.73092698256570       -7.57050113029626       -1.21070246439902
C           14.87861402316376       -6.72781667782916       -1.92589685472366
C           13.97462072217684       -7.33654819830375       -2.93415876816467
O           13.18840580220863       -6.44686115785177       -3.55707263566873
O           13.93265897889842       -8.51366883358422       -3.18538087950291
C           14.88967997570508       -5.35549812534392       -1.68547253341321
C           14.59798862106427       -2.74368523697863       -0.04458871320345
C           13.37706632585380       -3.43832677756794        0.24220504136324
C           12.43418759139573       -2.49425453685413        0.47186851540204
C           13.08042928127811       -1.22526565662918        0.32768764781160
N           14.41850916645667       -1.38966337082487        0.06907637081418
H           11.33141039884056       -0.02744184797506        0.36451071564715
H           11.30168761196872        2.55319774515775       -0.08307047366109
H           13.19549960342722        4.47535205040943       -0.03612113677467
H           14.38019171240303        4.87693047889204        2.27687609209756
H           13.69156916569592        9.09163930693620        3.63596653445045
H           15.84767618105576        8.71770231200457        1.07517581809135
H           17.24031391914028        7.63847823531210       -0.66522129131283
H           17.19746251068173        5.18774717969722       -0.94272540799489
H           18.32139357073761        4.31340094547687        1.35274801080695
H           20.21277881200601        2.40204172950825        1.12745411639124
H           20.19287049779389       -2.35993868388120       -1.12470546648933
H           18.28135028342811       -4.23026788427293       -1.48583223103637
H           17.26395700135829       -5.25884620337847        0.72842271914527
H           17.24859656633662       -7.68951263027166        0.29969804354891
H           15.70765242167678       -8.63612789090922       -1.40889095855203
H           12.63234528036633       -6.92130424350668       -4.19628938046547
H           14.23572529302176       -4.70194235227474       -2.25056091611886
H           13.26966357824856       -4.51073637072186        0.26241692662876
H           11.38994138489247       -2.62488004253792        0.70693013357720
Co          29.16047181574374       -0.03506978029217        0.10519492112531
C           32.52798824373499       -0.07109801507994        0.26517450788980
C           31.88865224802535       -1.16642843768699       -0.27487684849450
C           32.56769636509222       -2.31067004550920       -0.80254742242002
C           31.61647875353349       -3.23153007457222       -1.08391414802352
C           30.35845271421363       -2.65651076062161       -0.70501171793827
N           30.53052036853214       -1.36337910682328       -0.27976322825663
C           29.16302152943490       -3.35941641615758       -0.64778024870480
C           29.15395352734817       -4.80459848248713       -0.97176066333809
C           29.94044992346446       -5.69878029158664       -0.25105455804816
C           29.91888118106865       -7.06016177830996       -0.55144233512611
C           30.77594500141650       -7.96384010319366        0.25699040422070
O           30.66893040520526       -9.25482160476455       -0.08871681398044
O           31.50477436198958       -7.59676291398897        1.14274751442917
C           29.10924701433732       -7.53628708963236       -1.58250379977756
C           28.32755088437869       -6.64737934114830       -2.30371884359482
C           28.34589113959573       -5.29328501935885       -2.00151308969807
C           27.97376313991048       -2.75237624924874       -0.26987995173877
C           26.73518434825613       -3.44821714971367       -0.09180868318657
C           25.78453557686047       -2.50603912285077        0.12019667319079
N           27.79095570822938       -1.39909414322201       -0.10889501213965
C           26.44492119847961       -1.24047531210377        0.07162854763580
C           25.76972737830804       -0.01808387195664        0.04983457814312
C           26.45198175854186        1.20001990622733       -0.00050770604907
C           25.80152561348281        2.46587187465667       -0.12184696379709
C           26.76168700484822        3.41125631544797        0.02100113190258
C           27.99266192641601        2.71704102494030        0.25269781246319
N           27.79941216627723        1.35685379283637        0.16401478177279
C           29.17173222703907        3.33023551389502        0.64836558129700
C           29.18290777900012        4.79282526269503        0.88287142879401
C           28.33572252445277        5.36578089379774        1.83417974298090
C           28.34889938073223        6.73527642068695        2.05891635671538
C           29.20424678755557        7.54964839308076        1.33578295402237
C           30.05546150397756        6.98903902214143        0.38225745526402
C           30.95722087147113        7.89566633086457       -0.37216843509378
O           31.74303615366304        7.26017143088520       -1.25329331883737
O           30.99839019387542        9.09010653231708       -0.22344010414388
C           30.04526277942061        5.61379113789791        0.15913336272196
C           30.34103688343415        2.60842154601086        0.85088365848428
C           31.56322875989247        3.17223250646192        1.34478121572796
C           32.50694633711497        2.20627207981734        1.24862682712755
C           31.85996568669152        1.05364184896727        0.69939711330147
N           30.52072388709059        1.29183590364525        0.51465033564882
H           33.60908433524982       -0.08816895633844        0.33601975903646
H           33.63611317081566       -2.38191766332661       -0.92963790424197
H           31.74189832215094       -4.21725201586825       -1.50155525789442
H           30.56424094923288       -5.34942214171577        0.56443875142049
H           31.25516326152351       -9.77675559950713        0.48299636925748
H           29.09459879305566       -8.59421872957861       -1.81483056572052
H           27.69801369240857       -7.01011404871334       -3.10834821348968
H           27.73957575956126       -4.60186271092114       -2.57592024066163
H           26.61994601142012       -4.51948935538207       -0.12116542934737
H           24.72734031347547       -2.63912830210821        0.28416415763632
H           24.74521232751448        2.59717052971212       -0.29297353811486
H           26.65581607748298        4.48311896146688       -0.01918824717003
H           27.67545846093342        4.72832709523509        2.41151114016556
H           27.68919582885466        7.16515359961939        2.80396834303000
H           29.22681571701105        8.62133270241310        1.49815884948593
H           32.29789776942864        7.91852534210764       -1.70228463227562
H           30.69823387755430        5.18248017237620       -0.59033947583829
H           31.67088427089378        4.17898705192631        1.71472234391478
H           33.55222842859667        2.25404806855174        1.50916217179480
C           21.79486022053492       -0.00945990655028        0.06420112868742
C           20.57272027053633       -0.00827702979481        0.05861466475346
C           23.14403913112824       -0.01293630961098        0.06333478933503
C           24.36616138989839       -0.01331255054645        0.05689208466042

          :  Hamiltonian                  GFN1-xTB          :
         :: total energy            -242.815630241845 Eh    ::
         :: gradient norm              0.000471476694 Eh/a0 ::
         :: HOMO-LUMO gap              0.009637152758 eV    ::
         :: SCC energy              -246.317960774402 Eh    ::
         :: repulsion energy           3.616138925947 Eh    ::

    * Orbital Energies and Occupations

         #    Occupation            Energy/Eh            Energy/eV
      -------------------------------------------------------------
         1        2.0000           -0.8350782             -22.7236
       ...           ...                  ...                  ...
       204        2.0000           -0.4351003             -11.8397
       205        2.0000           -0.4337443             -11.8028
       206        2.0000           -0.4051478             -11.0246
       207        2.0000           -0.4043734             -11.0036
       208        2.0000           -0.4042651             -11.0006
       209        2.0000           -0.4032762             -10.9737
       210        2.0000           -0.4028800             -10.9629
       211        1.9998           -0.3997849             -10.8787
       212        1.9998           -0.3997426             -10.8776
       213        1.9998           -0.3996317             -10.8745
       214        1.9998           -0.3995909             -10.8734
       215        1.9184           -0.3939947             -10.7211
       216        1.1340           -0.3912515             -10.6465 (HOMO)
       217        0.9485           -0.3908973             -10.6369 (LUMO)
       218                         -0.3459041              -9.4125
       219                         -0.3363433              -9.1524
       220                         -0.3362179              -9.1490
       221                         -0.3326032              -9.0506
       222                         -0.3141674              -8.5489
       223                         -0.3136994              -8.5362
       224                         -0.3128624              -8.5134
       225                         -0.3127723              -8.5110
       226                         -0.3054516              -8.3118
       227                         -0.3009934              -8.1904
       ...                                ...                  ...
       446                          1.5085783              41.0505
      -------------------------------------------------------------
                  HL-Gap            0.0003542 Eh            0.0096 eV

Wiberg/Mayer (AO) data.
largest (>0.10) Wiberg bond orders for each atom

     #   Z sym  total        # sym  WBO       # sym  WBO       # sym  WBO
 ---------------------------------------------------------------------------
     1  27 Co   3.060 --     7 N    0.643    43 N    0.638    28 N    0.636
                            21 N    0.633
     2   6 C    3.930 --    42 C    1.365     3 C    1.365    44 H    0.970
     3   6 C    3.923 --     2 C    1.365     7 N    1.201     4 C    1.173
     4   6 C    3.959 --     5 C    1.651     3 C    1.173    45 H    0.975
     5   6 C    3.963 --     4 C    1.651     6 C    1.174    46 H    0.973
     6   6 C    3.921 --     8 C    1.323     7 N    1.210     5 C    1.174
     7   7 N    3.346 --     6 C    1.210     3 C    1.201     1 Co   0.643
     8   6 C    3.933 --    18 C    1.326     6 C    1.323     9 C    1.030
     9   6 C    3.988 --    10 C    1.407    17 C    1.386     8 C    1.030
                            15 C    0.102
    10   6 C    3.983 --     9 C    1.407    11 C    1.397    47 H    0.967
                            16 C    0.104
    11   6 C    3.988 --    10 C    1.397    15 C    1.391    12 C    1.004
    12   6 C    3.836 --    14 O    1.693    13 O    1.090    11 C    1.004
    13   8 O    2.099 --    12 C    1.090    48 H    0.838    14 O    0.129
    14   8 O    1.962 --    12 C    1.693    13 O    0.129
    15   6 C    3.986 --    16 C    1.447    11 C    1.391    49 H    0.970
                             9 C    0.102
    16   6 C    3.994 --    15 C    1.447    17 C    1.442    50 H    0.972
                            10 C    0.104
    17   6 C    3.985 --    16 C    1.442     9 C    1.386    51 H    0.972
    18   6 C    3.917 --     8 C    1.326    21 N    1.198    19 C    1.183
    19   6 C    3.958 --    20 C    1.635    18 C    1.183    52 H    0.973
    20   6 C    3.961 --    19 C    1.635    22 C    1.191    53 H    0.974
    21   7 N    3.349 --    22 C    1.227    18 C    1.198     1 Co   0.633
    22   6 C    3.904 --    23 C    1.262    21 N    1.227    20 C    1.191
    23   6 C    3.934 --    22 C    1.262    24 C    1.259   126 C    1.188
    24   6 C    3.905 --    23 C    1.259    28 N    1.231    25 C    1.191
    25   6 C    3.960 --    26 C    1.636    24 C    1.191    54 H    0.974
    26   6 C    3.958 --    25 C    1.636    27 C    1.181    55 H    0.973
    27   6 C    3.918 --    29 C    1.333    28 N    1.192    26 C    1.181
    28   7 N    3.347 --    24 C    1.231    27 C    1.192     1 Co   0.636
    29   6 C    3.933 --    27 C    1.333    39 C    1.316    30 C    1.029
    30   6 C    3.988 --    38 C    1.405    31 C    1.388    29 C    1.029
                            33 C    0.102
    31   6 C    3.987 --    32 C    1.440    30 C    1.388    56 H    0.972
    32   6 C    3.994 --    33 C    1.450    31 C    1.440    57 H    0.972
                            38 C    0.104
    33   6 C    3.985 --    32 C    1.450    34 C    1.388    58 H    0.969
                            30 C    0.102
    34   6 C    3.988 --    38 C    1.400    33 C    1.388    35 C    1.005
    35   6 C    3.836 --    37 O    1.693    36 O    1.090    34 C    1.005
    36   8 O    2.099 --    35 C    1.090    59 H    0.838    37 O    0.129
    37   8 O    1.961 --    35 C    1.693    36 O    0.129
    38   6 C    3.983 --    30 C    1.405    34 C    1.400    60 H    0.969
                            32 C    0.104
    39   6 C    3.921 --    29 C    1.316    43 N    1.214    40 C    1.176
    40   6 C    3.963 --    41 C    1.649    39 C    1.176    61 H    0.973
    41   6 C    3.960 --    40 C    1.649    42 C    1.174    62 H    0.975
    42   6 C    3.923 --     2 C    1.365    43 N    1.199    41 C    1.174
    43   7 N    3.348 --    39 C    1.214    42 C    1.199     1 Co   0.638
    44   1 H    1.000 --     2 C    0.970
    45   1 H    0.997 --     4 C    0.975
    46   1 H    1.003 --     5 C    0.973
    47   1 H    1.007 --    10 C    0.967
    48   1 H    0.872 --    13 O    0.838
    49   1 H    1.005 --    15 C    0.970
    50   1 H    1.002 --    16 C    0.972
    51   1 H    1.004 --    17 C    0.972
    52   1 H    1.003 --    19 C    0.973
    53   1 H    1.001 --    20 C    0.974
    54   1 H    1.001 --    25 C    0.974
    55   1 H    1.003 --    26 C    0.973
    56   1 H    1.005 --    31 C    0.972
    57   1 H    1.001 --    32 C    0.972
    58   1 H    1.005 --    33 C    0.969
    59   1 H    0.873 --    36 O    0.838
    60   1 H    1.007 --    38 C    0.969
    61   1 H    1.003 --    40 C    0.973
    62   1 H    0.997 --    41 C    0.975
    63  27 Co   3.054 --    69 N    0.642   105 N    0.638    90 N    0.635
                            83 N    0.633
    64   6 C    3.930 --   104 C    1.366    65 C    1.365   106 H    0.970
    65   6 C    3.923 --    64 C    1.365    69 N    1.201    66 C    1.173
    66   6 C    3.959 --    67 C    1.651    65 C    1.173   107 H    0.975
    67   6 C    3.963 --    66 C    1.651    68 C    1.174   108 H    0.973
    68   6 C    3.921 --    70 C    1.323    69 N    1.210    67 C    1.174
    69   7 N    3.346 --    68 C    1.210    65 C    1.201    63 Co   0.642
    70   6 C    3.932 --    80 C    1.326    68 C    1.323    71 C    1.029
    71   6 C    3.988 --    72 C    1.407    79 C    1.386    70 C    1.029
                            77 C    0.102
    72   6 C    3.983 --    71 C    1.407    73 C    1.397   109 H    0.967
                            78 C    0.104
    73   6 C    3.988 --    72 C    1.397    77 C    1.391    74 C    1.004
    74   6 C    3.836 --    76 O    1.693    75 O    1.090    73 C    1.004
    75   8 O    2.099 --    74 C    1.090   110 H    0.838    76 O    0.129
    76   8 O    1.962 --    74 C    1.693    75 O    0.129
    77   6 C    3.986 --    78 C    1.447    73 C    1.391   111 H    0.970
                            71 C    0.102
    78   6 C    3.994 --    77 C    1.447    79 C    1.442   112 H    0.972
                            72 C    0.104
    79   6 C    3.985 --    78 C    1.442    71 C    1.386   113 H    0.972
    80   6 C    3.917 --    70 C    1.326    83 N    1.197    81 C    1.183
    81   6 C    3.958 --    82 C    1.635    80 C    1.183   114 H    0.973
    82   6 C    3.961 --    81 C    1.635    84 C    1.191   115 H    0.973
    83   7 N    3.349 --    84 C    1.227    80 C    1.197    63 Co   0.633
    84   6 C    3.904 --    85 C    1.262    83 N    1.227    82 C    1.191
    85   6 C    3.934 --    84 C    1.262    86 C    1.259   128 C    1.188
    86   6 C    3.904 --    85 C    1.259    90 N    1.231    87 C    1.191
    87   6 C    3.962 --    88 C    1.636    86 C    1.191   116 H    0.974
    88   6 C    3.958 --    87 C    1.636    89 C    1.181   117 H    0.973
    89   6 C    3.918 --    91 C    1.333    90 N    1.192    88 C    1.181
    90   7 N    3.347 --    86 C    1.231    89 C    1.192    63 Co   0.635
    91   6 C    3.932 --    89 C    1.333   101 C    1.317    92 C    1.029
    92   6 C    3.988 --   100 C    1.405    93 C    1.388    91 C    1.029
                            95 C    0.102
    93   6 C    3.987 --    94 C    1.440    92 C    1.388   118 H    0.972
    94   6 C    3.994 --    95 C    1.450    93 C    1.440   119 H    0.972
                           100 C    0.104
    95   6 C    3.985 --    94 C    1.450    96 C    1.388   120 H    0.969
                            92 C    0.102
    96   6 C    3.988 --   100 C    1.400    95 C    1.388    97 C    1.005
    97   6 C    3.836 --    99 O    1.693    98 O    1.090    96 C    1.005
    98   8 O    2.099 --    97 C    1.090   121 H    0.838    99 O    0.129
    99   8 O    1.961 --    97 C    1.693    98 O    0.129
   100   6 C    3.985 --    92 C    1.405    96 C    1.400   122 H    0.969
                            94 C    0.104
   101   6 C    3.921 --    91 C    1.317   105 N    1.214   102 C    1.176
   102   6 C    3.963 --   103 C    1.649   101 C    1.176   123 H    0.973
   103   6 C    3.960 --   102 C    1.649   104 C    1.174   124 H    0.975
   104   6 C    3.923 --    64 C    1.366   105 N    1.199   103 C    1.174
   105   7 N    3.348 --   101 C    1.214   104 C    1.199    63 Co   0.638
   106   1 H    1.000 --    64 C    0.970
   107   1 H    0.997 --    66 C    0.975
   108   1 H    1.003 --    67 C    0.973
   109   1 H    1.007 --    72 C    0.967
   110   1 H    0.872 --    75 O    0.838
   111   1 H    1.005 --    77 C    0.970
   112   1 H    1.002 --    78 C    0.972
   113   1 H    1.005 --    79 C    0.972
   114   1 H    1.003 --    81 C    0.973
   115   1 H    1.001 --    82 C    0.973
   116   1 H    1.001 --    87 C    0.974
   117   1 H    1.003 --    88 C    0.973
   118   1 H    1.005 --    93 C    0.972
   119   1 H    1.001 --    94 C    0.972
   120   1 H    1.005 --    95 C    0.969
   121   1 H    0.873 --    98 O    0.838
   122   1 H    1.007 --   100 C    0.969
   123   1 H    1.003 --   102 C    0.973
   124   1 H    0.997 --   103 C    0.975
   125   6 C    3.930 --   126 C    2.472   127 C    1.310
   126   6 C    3.921 --   125 C    2.472    23 C    1.188   128 C    0.198
   127   6 C    3.930 --   128 C    2.472   125 C    1.310
   128   6 C    3.920 --   127 C    2.472    85 C    1.188   126 C    0.198
 ---------------------------------------------------------------------------

           -------------------------------------------------
          | TOTAL ENERGY             -242.815630241845 Eh   |
          | GRADIENT NORM               0.000471476694 Eh/α |
          | HOMO-LUMO GAP               0.009637152758 eV   |
           -------------------------------------------------

 * finished run on 2022/07/29 at 23:24:38.185
