   * xtb version 6.5.1 (b24c23e) compiled by 'conda@728c89f4b128' on 2022-07-12
          program call               : xtb Zn_H_C2_4.xyz --gfn 1 --opt -T 48

   ID    Z sym.   atoms
    1   30 Zn     1, 37, 79, 114
    2    6 C      2-6, 8-11, 13-18, 20-24, 38-42, 44-47, 49-54, 56-60, 73-78,
                  80-84, 86-89, 91-96, 98-102, 115-119, 121-124, 126-131,
                  133-137
    3    7 N      7, 12, 19, 25, 43, 48, 55, 61, 85, 90, 97, 103, 120, 125,
                  132, 138
    4    1 H      26-36, 62-72, 104-113, 139-148

          :  Hamiltonian                  GFN1-xTB          :
 * total energy  :  -257.2562083 Eh     change       -0.2547324E-08 Eh
 * total energy  :  -257.9478737 Eh     change       -0.6916654E+00 Eh
 * total energy  :  -258.1810446 Eh     change       -0.2331709E+00 Eh
 * total energy  :  -258.3307355 Eh     change       -0.1496908E+00 Eh
 * total energy  :  -258.4158500 Eh     change       -0.8511457E-01 Eh
 * total energy  :  -258.4586035 Eh     change       -0.4275345E-01 Eh
 * total energy  :  -258.4871159 Eh     change       -0.2851244E-01 Eh
 * total energy  :  -258.5077220 Eh     change       -0.2060611E-01 Eh
 * total energy  :  -258.5228210 Eh     change       -0.1509895E-01 Eh
 * total energy  :  -258.5331018 Eh     change       -0.1028087E-01 Eh
 * total energy  :  -258.5480111 Eh     change       -0.1486762E-04 Eh
 * total energy  :  -258.5480242 Eh     change       -0.1311500E-04 Eh
 * total energy  :  -258.5480295 Eh     change       -0.5302675E-05 Eh
 * total energy  :  -258.5480429 Eh     change       -0.1341650E-04 Eh
 * total energy  :  -258.5480516 Eh     change       -0.8675931E-05 Eh
 * total energy  :  -258.5480581 Eh     change       -0.6500801E-05 Eh
 * total energy  :  -258.5480647 Eh     change       -0.6658733E-05 Eh
 * total energy  :  -258.5480718 Eh     change       -0.7053544E-05 Eh
 * total energy  :  -258.5480763 Eh     change       -0.4552380E-05 Eh
   *** GEOMETRY OPTIMIZATION CONVERGED AFTER 74 ITERATIONS ***

 final structure:
================
148
 xtb: 6.5.1 (b24c23e)
Zn          28.00900349767571       -0.02557628690650       -0.02477767088677
C           24.57895003044719       -0.03059139983007       -0.04615693929287
C           25.21107671624518       -0.73052502805367       -1.06814194303859
C           24.54652593767768       -1.44972524153335       -2.12238892803053
C           25.51275332138139       -1.98377475273682       -2.91079323533915
C           26.77858179035240       -1.59718012715152       -2.34732263462888
N           26.56045526285422       -0.84139715986813       -1.23314351238505
C           28.02677940080968       -1.93225131929930       -2.85969478273302
C           29.26712785986630       -1.57554583560689       -2.34363967703985
C           30.53413590050981       -1.92978944546155       -2.91864807961175
C           31.49415144933000       -1.39292488962189       -2.12297760926416
N           29.48053549460357       -0.83346565363897       -1.21363419475883
C           30.82483946696006       -0.71066485500411       -1.05193472892161
C           31.46688223235525       -0.02129365362266       -0.00243879964471
C           30.80974732738320        0.66813881112360        1.03745405856278
C           31.46375915995368        1.35558060003835        2.11468806645540
C           30.49229796502148        1.89162331788119        2.89690420380597
C           29.23353567569060        1.53127335607609        2.30770695293432
N           29.46316740480675        0.78689156961574        1.18228096358410
C           27.98575055780442        1.88473310109481        2.80778455624950
C           26.74498955021479        1.54415862192227        2.28112419043678
C           25.47107448061380        1.92616427514072        2.82934850060273
C           24.51629596039060        1.38825974366618        2.02969040674720
C           25.19607855372188        0.67131741892985        0.98363384207016
N           26.54290657016435        0.78702340079965        1.16485283943674
H           23.49340305285331       -0.03232584521456       -0.05295269470963
H           23.47601898153532       -1.52727924344360       -2.23303819663985
H           25.39338760780911       -2.58735166690674       -3.79721820344017
H           28.03461702386462       -2.53498226814929       -3.76278310753243
H           30.66176162508781       -2.51189383070968       -3.81790180937584
H           32.56356821815208       -1.44387519092828       -2.24857116742227
H           32.53152744964333        1.41139445301050        2.25215377759335
H           30.60700997029041        2.47707120261051        3.79576397670682
H           27.98046418529369        2.48929157634663        3.70969355224033
H           25.33893446974814        2.52929650490443        3.71426756952311
H           23.44427343815573        1.46171708446190        2.12774168319670
Zn          60.89807837581490       -0.00156951034467       -0.01632658974752
C           64.32803465269774        0.02214763106879       -0.00603450104635
C           63.69457083687159        1.25156831464073        0.13894857134935
C           64.35755097677264        2.51941346167953        0.29054367116695
C           63.39018594043662        3.46501939982269        0.39305893323420
C           62.12528894043593        2.78563616054871        0.30608821911135
N           62.34488970632537        1.44832634122854        0.15430890092780
C           60.87636303717953        3.39426571623023        0.36039529051013
C           59.63694045373182        2.77068716439955        0.27953282226041
C           58.36897138493313        3.44296037990353        0.32386937035402
C           57.41027874356055        2.48802521588428        0.21522079137187
N           59.42527501161912        1.42504714415411        0.14532041545698
C           58.08142050895771        1.22340637629394        0.10864482165763
C           57.44083128985525       -0.02655064413608       -0.01820638174610
C           58.09892071258256       -1.26681968423799       -0.14860164243225
C           57.44612085395583       -2.54027128494866       -0.26317461588338
C           58.41870297713064       -3.48062742598457       -0.37611411487401
C           59.67685564780604       -2.79053704588009       -0.32545224554883
N           59.44569198757058       -1.44884648367589       -0.18441119953952
C           60.92538521226074       -3.39598604884504       -0.40555624551768
C           62.16543378557999       -2.77037748957008       -0.34200461670577
C           63.44016962596089       -3.43172544734891       -0.42458711450666
C           64.39372411117836       -2.47348772478081       -0.31046151689682
C           63.71233686405345       -1.21557819062782       -0.15741361114896
N           62.36570431128013       -1.43082764724240       -0.18224136683037
H           65.41357102917839        0.02948023263166       -0.00205999111410
H           65.42789027946804        2.65397374607254        0.31302711398779
H           63.50819096715212        4.53037949001920        0.51670479234428
H           60.86736174500086        4.47386769104423        0.47551847544468
H           58.23996584323015        4.50952052904091        0.42219055784932
H           56.34071063983268        2.62172297399601        0.19991633681761
H           56.37840555687486       -2.68898503754549       -0.25163727693326
H           58.30521609609789       -4.54830593214598       -0.48129568777059
H           60.93208391101638       -4.47496785905166       -0.52679209513543
H           63.57377022168458       -4.49464935364882       -0.55349283664632
H           65.46593783416687       -2.59321449909984       -0.32661820904778
C           32.87664856298617       -0.02195150154538        0.00739689862313
C           34.09416478256282       -0.02309154597406        0.01639365731198
C           43.84510683140699       -0.01195964691463       -0.03219917496113
C           45.06330280080194       -0.01572379657056       -0.03365044590075
C           54.81367472410037       -0.04604937932485       -0.01406313112673
C           56.03111358585659       -0.03556591111118       -0.01531662619244
Zn          38.96887968046185       -0.01772203222510       -0.00428945097987
C           35.50349101397035       -0.02372719778269        0.01691501714255
C           36.15702969705005        0.97939476341930        0.76206111327156
C           35.50019399015679        2.01171327899001        1.51204861789175
C           36.46989987335471        2.76258844857158        2.09480147181721
C           37.72908419337092        2.19848325963860        1.70015626783985
N           37.50318689247375        1.12041250278085        0.88811720692357
C           38.97639298564630        2.66997241866023        2.09073007218263
C           40.21986664185800        2.16954497074479        1.72462185497156
C           41.48171165426800        2.68360981350895        2.17453980969827
C           42.44709055441389        1.93106889106197        1.58698431454823
N           40.44037645028298        1.11857510350590        0.87589810597618
C           41.78583723294427        0.95619374344726        0.76780860413153
C           42.43609480257223       -0.01077878772517       -0.02775246736805
C           41.77995438698942       -0.97902138799659       -0.81706998789659
C           42.43473526996615       -1.94917361719632       -1.64704620789130
C           41.46500419792596       -2.70599028495387       -2.22186509648004
C           40.20720963534461       -2.19994314878901       -1.75221956512278
N           40.43424541006459       -1.14815238824142       -0.90623195068522
C           38.96091485048942       -2.70851769911122       -2.09644915241766
C           37.71770461047349       -2.24368735761509       -1.68550252838267
C           36.45602499287478       -2.81714468103889       -2.05767093722631
C           35.49102220061676       -2.06802970300966       -1.46503101259172
C           36.15315158591996       -1.02795039404294       -0.73063128539096
N           37.49802811462503       -1.16317326710764       -0.87478147831607
H           34.43210590252743        2.14280678122353        1.57620489877650
H           36.35312371708113        3.62432474022294        2.73326344758475
H           38.98022174563599        3.52641742196794        2.75835563084047
H           41.60278539038789        3.51172480254937        2.85521487266252
H           43.51526780074099        2.01967677035628        1.69915569857130
H           43.50160649958234       -2.03105332358751       -1.77549351284973
H           41.58057895725727       -3.53205390740295       -2.90597449990233
H           38.95807028397482       -3.56609992575729       -2.76260083999771
H           36.33469631308947       -3.68366186437003       -2.68871830573150
H           34.42301306976712       -2.20669136822795       -1.51056530246106
Zn          49.93940250143981       -0.03353392860975       -0.02262443887782
C           46.47233248844072       -0.01958951700300       -0.03347348884864
C           47.12803420940928        1.12306683699819        0.47185147407928
C           46.47285484495185        2.30180626988123        0.96191627308586
C           47.44234292255428        3.15797971081024        1.37501349713203
C           48.70042050815037        2.51121842885418        1.13468526648913
N           48.47382621584540        1.28045271842289        0.58038080472130
C           49.94661184124385        3.05003156683707        1.42995393452086
C           51.19001629302682        2.47465281914578        1.19931034549811
C           52.45172727598872        3.06748781483425        1.53962606501472
C           53.41694007357601        2.20070165968331        1.13875897681013
N           51.40989446353163        1.26261450933558        0.60258909973424
C           52.75479068725181        1.07423977991341        0.54515751856675
C           53.40441869677327       -0.04663720017194       -0.01237754658243
C           52.75123373914904       -1.16487114937414       -0.57036007899271
C           53.40870335455411       -2.29869203681139       -1.15502088493784
C           52.43934916106288       -3.15826182143971       -1.56164994540309
C           51.17989922930805       -2.55337545683516       -1.23377657119291
N           51.40524828500190       -1.34249655270960       -0.63739814105656
C           49.93277670447482       -3.11640397913892       -1.47522513022545
C           48.68922982117999       -2.56585926024657       -1.19021252454064
C           47.42762223400918       -3.20143787355112       -1.44195611608892
C           46.46206300069019       -2.33833660766936       -1.03409311490612
C           47.12297979191246       -1.16608952163786       -0.53647269886907
N           48.46843535080210       -1.33418991446850       -0.63545425023465
H           45.40585933006369        2.45238163006959        0.97837527145878
H           47.32629923682858        4.14190391893287        1.80189020566912
H           49.94910077180499        4.03248073295212        1.89270750053028
H           52.57280583122654        4.02276846273050        2.02607370977047
H           54.48503617164663        2.30534574206239        1.23984577724224
H           54.47688273243185       -2.41355852701213       -1.24465844230192
H           52.55646119379059       -4.11612321163667       -2.04400500369483
H           49.92914395845309       -4.09872031999067       -1.93826409259937
H           47.30679515925183       -4.18322237773037       -1.87247404427665
H           45.39397537284788       -2.47974994191100       -1.05967325792773

          :  Hamiltonian                  GFN1-xTB          :
         :: total energy            -258.548076342170 Eh    ::
         :: gradient norm              0.000636405449 Eh/a0 ::
         :: HOMO-LUMO gap              0.855886686536 eV    ::
         :: SCC energy              -262.633498647414 Eh    ::
         :: repulsion energy           4.220961238634 Eh    ::

    * Orbital Energies and Occupations

         #    Occupation            Energy/Eh            Energy/eV
      -------------------------------------------------------------
         1        2.0000           -0.7575619             -20.6143
       ...           ...                  ...                  ...
       225        2.0000           -0.4184157             -11.3857
       226        2.0000           -0.4178665             -11.3707
       227        2.0000           -0.4178571             -11.3705
       228        2.0000           -0.4174721             -11.3600
       229        2.0000           -0.4148875             -11.2897
       230        2.0000           -0.3940287             -10.7221
       231        2.0000           -0.3912065             -10.6453
       232        2.0000           -0.3911998             -10.6451
       233        2.0000           -0.3906045             -10.6289
       234        2.0000           -0.3906024             -10.6288
       235        2.0000           -0.3869781             -10.5302
       236        2.0000           -0.3784094             -10.2970
       237        2.0000           -0.3707139             -10.0876 (HOMO)
       238        0.0000           -0.3392607              -9.2318 (LUMO)
       239                         -0.3308012              -9.0016
       240                         -0.3234726              -8.8021
       241                         -0.3234671              -8.8020
       242                         -0.3230646              -8.7910
       243                         -0.3230616              -8.7910
       244                         -0.3215073              -8.7487
       245                         -0.3135971              -8.5334
       246                         -0.2951771              -8.0322
       247                         -0.2883195              -7.8456
       248                         -0.2830347              -7.7018
       ...                                ...                  ...
       508                          1.3416322              36.5077
      -------------------------------------------------------------
                  HL-Gap            0.0314533 Eh            0.8559 eV

Wiberg/Mayer (AO) data.
largest (>0.10) Wiberg bond orders for each atom

     #   Z sym  total        # sym  WBO       # sym  WBO       # sym  WBO
 ---------------------------------------------------------------------------
     1  30 Zn   1.998 --     7 N    0.460    25 N    0.460    19 N    0.457
                            12 N    0.457
     2   6 C    3.932 --     3 C    1.358    24 C    1.358    26 H    0.972
     3   6 C    3.922 --     2 C    1.358     7 N    1.239     4 C    1.166
     4   6 C    3.960 --     5 C    1.665     3 C    1.166    27 H    0.976
     5   6 C    3.963 --     4 C    1.665     6 C    1.167    28 H    0.976
     6   6 C    3.920 --     8 C    1.356     7 N    1.238     5 C    1.167
     7   7 N    3.296 --     3 C    1.239     6 C    1.238     1 Zn   0.460
     8   6 C    3.938 --     9 C    1.363     6 C    1.356    29 H    0.971
     9   6 C    3.914 --     8 C    1.363    12 N    1.221    10 C    1.174
    10   6 C    3.959 --    11 C    1.651     9 C    1.174    30 H    0.976
    11   6 C    3.962 --    10 C    1.651    13 C    1.182    31 H    0.969
    12   7 N    3.300 --    13 C    1.266     9 C    1.221     1 Zn   0.457
    13   6 C    3.907 --    12 N    1.266    14 C    1.259    11 C    1.182
    14   6 C    3.944 --    15 C    1.259    13 C    1.259    73 C    1.180
    15   6 C    3.907 --    19 N    1.266    14 C    1.259    16 C    1.182
    16   6 C    3.962 --    17 C    1.651    15 C    1.182    32 H    0.969
    17   6 C    3.959 --    16 C    1.651    18 C    1.174    33 H    0.976
    18   6 C    3.914 --    20 C    1.363    19 N    1.221    17 C    1.174
    19   7 N    3.300 --    15 C    1.266    18 C    1.221     1 Zn   0.457
    20   6 C    3.938 --    18 C    1.363    21 C    1.356    34 H    0.971
    21   6 C    3.920 --    20 C    1.356    25 N    1.238    22 C    1.166
    22   6 C    3.963 --    23 C    1.665    21 C    1.166    35 H    0.976
    23   6 C    3.960 --    22 C    1.665    24 C    1.166    36 H    0.976
    24   6 C    3.922 --     2 C    1.358    25 N    1.239    23 C    1.166
    25   7 N    3.296 --    24 C    1.239    21 C    1.238     1 Zn   0.460
    26   1 H    1.002 --     2 C    0.972
    27   1 H    0.998 --     4 C    0.976
    28   1 H    0.998 --     5 C    0.976
    29   1 H    1.002 --     8 C    0.971
    30   1 H    0.998 --    10 C    0.976
    31   1 H    1.006 --    11 C    0.969
    32   1 H    1.006 --    16 C    0.969
    33   1 H    0.998 --    17 C    0.976
    34   1 H    1.002 --    20 C    0.971
    35   1 H    0.998 --    22 C    0.976
    36   1 H    0.998 --    23 C    0.976
    37  30 Zn   1.998 --    61 N    0.460    43 N    0.460    48 N    0.457
                            55 N    0.457
    38   6 C    3.932 --    39 C    1.358    60 C    1.357    62 H    0.972
    39   6 C    3.922 --    38 C    1.358    43 N    1.239    40 C    1.166
    40   6 C    3.960 --    41 C    1.665    39 C    1.166    63 H    0.976
    41   6 C    3.963 --    40 C    1.665    42 C    1.167    64 H    0.976
    42   6 C    3.920 --    44 C    1.356    43 N    1.238    41 C    1.167
    43   7 N    3.296 --    39 C    1.239    42 C    1.238    37 Zn   0.460
    44   6 C    3.938 --    45 C    1.363    42 C    1.356    65 H    0.971
    45   6 C    3.914 --    44 C    1.363    48 N    1.221    46 C    1.174
    46   6 C    3.959 --    47 C    1.651    45 C    1.174    66 H    0.976
    47   6 C    3.962 --    46 C    1.651    49 C    1.181    67 H    0.969
    48   7 N    3.300 --    49 C    1.266    45 C    1.221    37 Zn   0.457
    49   6 C    3.907 --    48 N    1.266    50 C    1.259    47 C    1.181
    50   6 C    3.944 --    51 C    1.259    49 C    1.259    78 C    1.180
    51   6 C    3.907 --    55 N    1.266    50 C    1.259    52 C    1.181
    52   6 C    3.962 --    53 C    1.651    51 C    1.181    68 H    0.969
    53   6 C    3.959 --    52 C    1.651    54 C    1.174    69 H    0.976
    54   6 C    3.914 --    56 C    1.363    55 N    1.221    53 C    1.174
    55   7 N    3.300 --    51 C    1.266    54 C    1.221    37 Zn   0.457
    56   6 C    3.938 --    54 C    1.363    57 C    1.356    70 H    0.971
    57   6 C    3.920 --    56 C    1.356    61 N    1.238    58 C    1.167
    58   6 C    3.963 --    59 C    1.665    57 C    1.167    71 H    0.976
    59   6 C    3.960 --    58 C    1.665    60 C    1.166    72 H    0.976
    60   6 C    3.922 --    38 C    1.357    61 N    1.239    59 C    1.166
    61   7 N    3.296 --    60 C    1.239    57 C    1.238    37 Zn   0.460
    62   1 H    1.002 --    38 C    0.972
    63   1 H    0.998 --    40 C    0.976
    64   1 H    0.998 --    41 C    0.976
    65   1 H    1.002 --    44 C    0.971
    66   1 H    0.998 --    46 C    0.976
    67   1 H    1.006 --    47 C    0.969
    68   1 H    1.006 --    52 C    0.969
    69   1 H    0.998 --    53 C    0.976
    70   1 H    1.002 --    56 C    0.971
    71   1 H    0.998 --    58 C    0.976
    72   1 H    0.998 --    59 C    0.976
    73   6 C    3.932 --    74 C    2.574    14 C    1.180
    74   6 C    3.935 --    73 C    2.574    80 C    1.182
    75   6 C    3.932 --    76 C    2.570    92 C    1.185
    76   6 C    3.932 --    75 C    2.570   115 C    1.185
    77   6 C    3.935 --    78 C    2.575   127 C    1.181
    78   6 C    3.932 --    77 C    2.575    50 C    1.180
    79  30 Zn   1.994 --    90 N    0.457   103 N    0.457    97 N    0.456
                            85 N    0.456
    80   6 C    3.931 --    81 C    1.257   102 C    1.256    74 C    1.182
    81   6 C    3.908 --    85 N    1.267    80 C    1.257    82 C    1.183
    82   6 C    3.960 --    83 C    1.648    81 C    1.183   104 H    0.969
    83   6 C    3.960 --    82 C    1.648    84 C    1.176   105 H    0.976
    84   6 C    3.913 --    86 C    1.360    85 N    1.220    83 C    1.176
    85   7 N    3.293 --    81 C    1.267    84 C    1.220    79 Zn   0.456
    86   6 C    3.932 --    87 C    1.360    84 C    1.360   106 H    0.971
    87   6 C    3.913 --    86 C    1.360    90 N    1.219    88 C    1.177
    88   6 C    3.959 --    89 C    1.648    87 C    1.177   107 H    0.976
    89   6 C    3.960 --    88 C    1.648    91 C    1.184   108 H    0.968
    90   7 N    3.293 --    91 C    1.267    87 C    1.219    79 Zn   0.457
    91   6 C    3.907 --    90 N    1.267    92 C    1.255    89 C    1.184
    92   6 C    3.931 --    91 C    1.255    93 C    1.254    75 C    1.185
    93   6 C    3.907 --    97 N    1.268    92 C    1.254    94 C    1.184
    94   6 C    3.960 --    95 C    1.648    93 C    1.184   109 H    0.968
    95   6 C    3.959 --    94 C    1.648    96 C    1.177   110 H    0.976
    96   6 C    3.913 --    98 C    1.360    97 N    1.219    95 C    1.177
    97   7 N    3.293 --    93 C    1.268    96 C    1.219    79 Zn   0.456
    98   6 C    3.932 --    96 C    1.360    99 C    1.360   111 H    0.971
    99   6 C    3.913 --    98 C    1.360   103 N    1.220   100 C    1.176
   100   6 C    3.960 --   101 C    1.648    99 C    1.176   112 H    0.976
   101   6 C    3.960 --   100 C    1.648   102 C    1.183   113 H    0.969
   102   6 C    3.908 --   103 N    1.267    80 C    1.256   101 C    1.183
   103   7 N    3.293 --   102 C    1.267    99 C    1.220    79 Zn   0.457
   104   1 H    1.006 --    82 C    0.969
   105   1 H    0.998 --    83 C    0.976
   106   1 H    1.002 --    86 C    0.971
   107   1 H    0.998 --    88 C    0.976
   108   1 H    1.007 --    89 C    0.968
   109   1 H    1.007 --    94 C    0.968
   110   1 H    0.998 --    95 C    0.976
   111   1 H    1.002 --    98 C    0.971
   112   1 H    0.998 --   100 C    0.976
   113   1 H    1.006 --   101 C    0.969
   114  30 Zn   1.995 --   138 N    0.457   125 N    0.457   120 N    0.456
                           132 N    0.456
   115   6 C    3.932 --   137 C    1.255   116 C    1.255    76 C    1.185
   116   6 C    3.907 --   120 N    1.268   115 C    1.255   117 C    1.184
   117   6 C    3.960 --   118 C    1.648   116 C    1.184   139 H    0.968
   118   6 C    3.959 --   117 C    1.648   119 C    1.177   140 H    0.976
   119   6 C    3.913 --   121 C    1.360   120 N    1.220   118 C    1.177
   120   7 N    3.293 --   116 C    1.268   119 C    1.220   114 Zn   0.456
   121   6 C    3.932 --   119 C    1.360   122 C    1.360   141 H    0.971
   122   6 C    3.913 --   121 C    1.360   125 N    1.220   123 C    1.176
   123   6 C    3.960 --   124 C    1.648   122 C    1.176   142 H    0.976
   124   6 C    3.960 --   123 C    1.648   126 C    1.183   143 H    0.969
   125   7 N    3.293 --   126 C    1.267   122 C    1.220   114 Zn   0.457
   126   6 C    3.908 --   125 N    1.267   127 C    1.256   124 C    1.183
   127   6 C    3.931 --   128 C    1.257   126 C    1.256    77 C    1.181
   128   6 C    3.908 --   132 N    1.267   127 C    1.257   129 C    1.183
   129   6 C    3.960 --   130 C    1.648   128 C    1.183   144 H    0.969
   130   6 C    3.960 --   129 C    1.648   131 C    1.176   145 H    0.976
   131   6 C    3.913 --   133 C    1.360   132 N    1.220   130 C    1.176
   132   7 N    3.293 --   128 C    1.267   131 C    1.220   114 Zn   0.456
   133   6 C    3.932 --   134 C    1.360   131 C    1.360   146 H    0.971
   134   6 C    3.913 --   133 C    1.360   138 N    1.219   135 C    1.177
   135   6 C    3.959 --   136 C    1.648   134 C    1.177   147 H    0.976
   136   6 C    3.960 --   135 C    1.648   137 C    1.184   148 H    0.968
   137   6 C    3.907 --   138 N    1.267   115 C    1.255   136 C    1.184
   138   7 N    3.293 --   137 C    1.267   134 C    1.219   114 Zn   0.457
   139   1 H    1.007 --   117 C    0.968
   140   1 H    0.998 --   118 C    0.976
   141   1 H    1.002 --   121 C    0.971
   142   1 H    0.998 --   123 C    0.976
   143   1 H    1.006 --   124 C    0.969
   144   1 H    1.006 --   129 C    0.969
   145   1 H    0.998 --   130 C    0.976
   146   1 H    1.002 --   133 C    0.971
   147   1 H    0.998 --   135 C    0.976
   148   1 H    1.007 --   136 C    0.968
 ---------------------------------------------------------------------------

           -------------------------------------------------
          | TOTAL ENERGY             -258.548076342170 Eh   |
          | GRADIENT NORM               0.000636405449 Eh/α |
          | HOMO-LUMO GAP               0.855886686536 eV   |
           -------------------------------------------------

 * finished run on 2022/07/30 at 06:57:23.423
