   * xtb version 6.5.1 (b24c23e) compiled by 'conda@728c89f4b128' on 2022-07-12
          program call               : xtb PhOH_C2_2.xyz --gfn 1 --opt -T 48

   ID    Z sym.   atoms
    1    6 C      1-5, 7-11, 13-17, 19-24, 26-30, 32-37, 60-64, 66-70, 72-76,
                  78-83, 85-89, 91-96, 119, 120
    2    7 N      6, 18, 25, 38, 65, 77, 84, 97
    3    8 O      12, 31, 71, 90
    4    1 H      39-59, 98-118
########################################################################
[WARNING] Please study the warnings concerning your input carefully
-1- prog_main_parseArguments: Unknown option '-T' provided
########################################################################

          :  Hamiltonian                  GFN1-xTB          :
 * total energy  :  -205.5192812 Eh     change       -0.9420944E-09 Eh
 * total energy  :  -206.1065444 Eh     change       -0.5872632E+00 Eh
 * total energy  :  -206.2565789 Eh     change       -0.1500345E+00 Eh
 * total energy  :  -206.3179019 Eh     change       -0.6132296E-01 Eh
 * total energy  :  -206.3478524 Eh     change       -0.2995058E-01 Eh
 * total energy  :  -206.3618806 Eh     change       -0.1402812E-01 Eh
 * total energy  :  -206.3701478 Eh     change       -0.8267211E-02 Eh
 * total energy  :  -206.3750264 Eh     change       -0.4878585E-02 Eh
 * total energy  :  -206.3783457 Eh     change       -0.3319333E-02 Eh
 * total energy  :  -206.3808249 Eh     change       -0.2479258E-02 Eh
 * total energy  :  -206.3930798 Eh     change       -0.1780150E-04 Eh
 * total energy  :  -206.3931018 Eh     change       -0.2195874E-04 Eh
 * total energy  :  -206.3931280 Eh     change       -0.2618190E-04 Eh
 * total energy  :  -206.3931500 Eh     change       -0.2201487E-04 Eh
 * total energy  :  -206.3931603 Eh     change       -0.1033835E-04 Eh
 * total energy  :  -206.3931700 Eh     change       -0.9694309E-05 Eh
 * total energy  :  -206.3931768 Eh     change       -0.6773992E-05 Eh
 * total energy  :  -206.3931831 Eh     change       -0.6299282E-05 Eh
 * total energy  :  -206.3931869 Eh     change       -0.3836770E-05 Eh
   *** GEOMETRY OPTIMIZATION CONVERGED AFTER 47 ITERATIONS ***

 final structure:
================
120
 xtb: 6.5.1 (b24c23e)
C           12.92205222119953        0.14194368316265        0.00301905670767
C           13.53509448863348        1.26695071970265       -0.53325729304700
C           12.88868724544104        2.40550785396185       -1.09060879581342
C           13.85491498449723        3.29271401973823       -1.47401482960114
C           15.12288204922794        2.72965549251933       -1.15240050764577
N           14.87918444038183        1.50242995613701       -0.60347938052792
C           16.38721062482995        3.29838893939031       -1.34462852695449
C           16.42334512305346        4.67128541079721       -1.90346115782363
C           17.09017165909773        4.93109621689770       -3.10157317839585
C           17.12007370173886        6.21086470710876       -3.63323871398532
C           16.48426691986459        7.25314650436183       -2.96258180297450
O           16.48986134425897        8.52195009065526       -3.44652516829271
C           15.81882253946734        7.00887705504065       -1.76261882920847
C           15.78848692293072        5.72678124776490       -1.24353142075805
C           17.60019675027715        2.67252304314361       -1.04339120524060
C           18.89354294293636        3.32200456417585       -1.15312524755981
C           19.81371172550610        2.40407222147348       -0.79053947421180
N           17.75604764408981        1.39494001299290       -0.59977231658602
C           19.08310672551724        1.19744946919040       -0.45728332136570
C           19.71984081394975        0.00382296791712       -0.06135769058803
C           19.07649973086928       -1.17936103757317        0.34900961437702
C           19.70528243934003       -2.40621314952153        0.68683549718033
C           18.73370929427130       -3.28830740474441        1.07200184095513
C           17.47921864855382       -2.62446994897983        0.98448283707219
N           17.73626767954330       -1.35966032442768        0.52543047147405
C           16.21903174660435       -3.14980913216239        1.29378600777573
C           16.18789446554419       -4.51869405474668        1.86086573062797
C           16.86920437821192       -4.81120312835767        3.04568715398017
C           16.83897040122597       -6.08419602986337        3.58627899609145
C           16.12642482544608       -7.09266909939672        2.93993541113275
O           16.11977041804276       -8.33167310196753        3.49613534767365
C           15.44682949748333       -6.81825202587215        1.75544122863970
C           15.47760596182720       -5.53789342360969        1.22499319400209
C           15.00634760973495       -2.47771473827934        1.10720861107764
C           13.70661827323987       -3.01001298008249        1.48623200669498
C           12.79335854040471       -2.09015326055676        1.11462658803755
C           13.53487595106870       -0.99036002125068        0.52382889066365
N           14.86468417301725       -1.25157761429689        0.55000763005590
H           11.83691873958009        0.15969122212076        0.01505353075996
H           11.82024529591824        2.51648844517239       -1.18555556967418
H           13.70742444739886        4.25030630354101       -1.94647376320823
H           15.60119889380270        0.86123919362327       -0.29255154264865
H           17.57438911215406        4.11842214340775       -3.63149935763472
H           17.63368444932276        6.40492765574394       -4.56879017310533
H           16.98382591843062        8.58083213108598       -4.27531044926081
H           15.33383545167512        7.82973884948684       -1.24893084607852
H           15.28395256463750        5.54099925183486       -0.30184533508604
H           19.05351970238540        4.34690660816311       -1.44659345569592
H           20.88403603027976        2.51581327207400       -0.72877290978027
H           20.76545202809154       -2.58948380040219        0.62706876069008
H           18.87065555754185       -4.31329992106683        1.37571043828704
H           17.02238481753333       -0.66224536433345        0.34275881600509
H           17.41049385495241       -4.02346752610421        3.55787172786945
H           17.35951432346925       -6.31049063633478        4.50863815370123
H           15.58676068688366       -8.94809237992514        2.97630124637310
H           14.89810645557303       -7.60752040060533        1.25275184312040
H           14.96022717673786       -5.33044924011178        0.29495271201966
H           13.54073826882113       -3.95304185409047        1.98190824447959
H           11.72066730817485       -2.11928927287501        1.22612827482333
C           30.55347600185683       -0.07426784062721        0.12100495709425
C           29.94043149882381       -1.13395866618803        0.77696659795750
C           30.58683683747631       -2.21870706745891        1.43292124136979
C           29.62060772459161       -3.02117223493243        1.97160654823477
C           28.35264160006917       -2.44605140543622        1.67209161718397
N           28.59634120612142       -1.32041963722347        0.93700719299106
C           27.08831228270621       -2.91542752963092        2.04638194708712
C           27.05217557416301       -4.12821089417076        2.89861130421142
C           26.38534681030219       -5.27637832706785        2.46886371280982
C           26.35544171049112       -6.41592727664990        3.25747218142881
C           26.99124826076878       -6.41584691392878        4.49688032883374
O           26.98565112830481       -7.50932992429603        5.30208756122713
C           27.65669555951174       -5.27453206223505        4.94069895760913
C           27.68703353721225       -4.14430146299215        4.14332807338694
C           25.87532703309849       -2.32346175757778        1.68302119423003
C           24.58198004206559       -2.76714988035960        2.16985417150724
C           23.66181266004170       -1.96556725870603        1.59406240646635
N           25.71947836119526       -1.25914007060410        0.84861363077656
C           24.39241935506721       -1.03245473108702        0.75961862923156
C           23.75568743789402       -0.05366677824161       -0.02998765347046
C           24.39903055935543        0.93161544022871       -0.80299620015379
C           23.77024938311050        1.87952147122591       -1.65197704396539
C           24.74182394133207        2.68070311267625       -2.18540815007496
C           25.99631386114138        2.24792410078426       -1.67448367333997
N           25.73926296072736        1.17753306600933       -0.85917108576155
C           27.25650186264901        2.79227918679432       -1.94893687056739
C           27.28764133366508        4.00982974862695       -2.79332778629865
C           26.60633656924998        5.16451449816609       -2.39826640559963
C           26.63657293257161        6.30790614372336       -3.17634471600169
C           27.34911567831964        6.30997891490228       -4.37416679836021
O           27.35577267531397        7.44810696140632       -5.11521592641270
C           28.02870562353513        5.16535808389283       -4.78426634351659
C           27.99792689950385        4.02651198644236       -3.99450514138538
C           28.46918518732611        2.27172627499096       -1.48466484960008
C           29.76891586194836        2.87847947182774       -1.72724942496949
C           30.68217408337968        2.06826688635483       -1.15471924364068
C           29.94065449415672        0.97636654641420       -0.54946108978385
N           28.61084651154769        1.13971892866553       -0.75497638693158
H           31.63860948329935       -0.07375177694951        0.14244176011869
H           31.65527854089967       -2.35860449154063        1.47488333594045
H           29.76809663170600       -3.93661437402644        2.52130335086793
H           27.87432788221482       -0.71201279859400        0.56600253488577
H           25.90112968449376       -5.28233645026917        1.49869587958592
H           25.84182901440391       -7.30771166754099        2.91449177022623
H           26.49168435355551       -8.23818445909450        4.90318776950826
H           28.14168311973870       -5.28665998349853        5.90896644574219
H           28.19156975474216       -3.25183857903574        4.49659252882800
H           24.42200150870633       -3.56848105176710        2.87300109735047
H           22.59148820036829       -1.97407975463123        1.72145296030272
H           22.71007984907324        1.92842052610712       -1.83844212972270
H           24.60487899180411        3.49069843535299       -2.88308752370770
H           26.45314502567999        0.64656566017344       -0.37149155183997
H           26.06504926110521        5.16904662301126       -1.45866956399609
H           26.11603308692423        7.20603747179735       -2.86760529788135
H           27.88878097998201        7.34445005551283       -5.91487646761033
H           28.57742632360703        5.16964040434550       -5.72001493295510
H           28.51530166221986        3.13211998135731       -4.32325351277668
H           29.93479772885461        3.80556692996129       -2.25213666958423
H           31.75486563304713        2.17779984361953       -1.11889468760999
C           21.12921779468623       -0.01944859083208       -0.06384591911702
C           22.34631046527315       -0.04316643856691       -0.05090523985165

          :  Hamiltonian                  GFN1-xTB          :
         :: total energy            -206.393186925657 Eh    ::
         :: gradient norm              0.000523334564 Eh/a0 ::
         :: HOMO-LUMO gap              0.976830297382 eV    ::
         :: SCC energy              -209.563621429882 Eh    ::
         :: repulsion energy           3.272922015641 Eh    ::

    * Orbital Energies and Occupations

         #    Occupation            Energy/Eh            Energy/eV
      -------------------------------------------------------------
         1        2.0000           -0.8053920             -21.9158
       ...           ...                  ...                  ...
       173        2.0000           -0.4186480             -11.3920
       174        2.0000           -0.4185208             -11.3885
       175        2.0000           -0.4184771             -11.3873
       176        2.0000           -0.4157853             -11.3141
       177        2.0000           -0.4152163             -11.2986
       178        2.0000           -0.4143081             -11.2739
       179        2.0000           -0.4142998             -11.2737
       180        2.0000           -0.4120991             -11.2138
       181        2.0000           -0.4120681             -11.2129
       182        2.0000           -0.3964181             -10.7871
       183        2.0000           -0.3958728             -10.7722
       184        2.0000           -0.3866205             -10.5205
       185        2.0000           -0.3744023             -10.1880 (HOMO)
       186                         -0.3385045              -9.2112 (LUMO)
       187                         -0.3281513              -8.9295
       188                         -0.3280387              -8.9264
       189                         -0.3223240              -8.7709
       190                         -0.2957029              -8.0465
       191                         -0.2871510              -7.8138
       192                         -0.2670928              -7.2680
       193                         -0.2670919              -7.2679
       194                         -0.2667601              -7.2589
       195                         -0.2667569              -7.2588
       196                         -0.2540984              -6.9144
       ...                                ...                  ...
       396                          1.3387403              36.4290
      -------------------------------------------------------------
                  HL-Gap            0.0358979 Eh            0.9768 eV

Wiberg/Mayer (AO) data.
largest (>0.10) Wiberg bond orders for each atom

     #   Z sym  total        # sym  WBO       # sym  WBO       # sym  WBO
 ---------------------------------------------------------------------------
     1   6 C    3.924 --    37 C    1.365     2 C    1.346    39 H    0.971
     2   6 C    3.903 --     1 C    1.346     3 C    1.230     6 N    1.170
     3   6 C    3.952 --     4 C    1.594     2 C    1.230    40 H    0.977
     4   6 C    3.959 --     3 C    1.594     5 C    1.235    41 H    0.974
     5   6 C    3.896 --     7 C    1.303     4 C    1.235     6 N    1.176
     6   7 N    3.468 --     5 C    1.176     2 C    1.170    42 H    0.874
     7   6 C    3.939 --    15 C    1.332     5 C    1.303     8 C    1.033
     8   6 C    3.989 --     9 C    1.391    14 C    1.382     7 C    1.033
     9   6 C    3.986 --    10 C    1.453     8 C    1.391    43 H    0.972
                            13 C    0.105
    10   6 C    3.988 --     9 C    1.453    11 C    1.371    44 H    0.970
                            14 C    0.102
    11   6 C    3.900 --    10 C    1.371    13 C    1.364    12 O    1.040
    12   8 O    2.043 --    11 C    1.040    45 H    0.865
    13   6 C    3.990 --    14 C    1.467    11 C    1.364    46 H    0.971
                             9 C    0.105
    14   6 C    3.987 --    13 C    1.467     8 C    1.382    47 H    0.973
                            10 C    0.102
    15   6 C    3.915 --     7 C    1.332    18 N    1.288    16 C    1.127
    16   6 C    3.965 --    17 C    1.706    15 C    1.127    48 H    0.974
    17   6 C    3.964 --    16 C    1.706    19 C    1.131    49 H    0.970
    18   7 N    3.020 --    19 C    1.342    15 C    1.288
    19   6 C    3.914 --    18 N    1.342    20 C    1.258    17 C    1.131
    20   6 C    3.936 --    19 C    1.258    21 C    1.254   119 C    1.180
    21   6 C    3.890 --    20 C    1.254    22 C    1.251    25 N    1.187
    22   6 C    3.959 --    23 C    1.580    21 C    1.251    50 H    0.971
    23   6 C    3.955 --    22 C    1.580    24 C    1.243    51 H    0.974
    24   6 C    3.898 --    26 C    1.305    23 C    1.243    25 N    1.166
    25   7 N    3.474 --    21 C    1.187    24 C    1.166    52 H    0.873
    26   6 C    3.925 --    34 C    1.321    24 C    1.305    27 C    1.034
    27   6 C    3.989 --    33 C    1.391    28 C    1.381    26 C    1.034
    28   6 C    3.986 --    29 C    1.468    27 C    1.381    53 H    0.973
                            32 C    0.102
    29   6 C    3.990 --    28 C    1.468    30 C    1.363    54 H    0.971
                            33 C    0.104
    30   6 C    3.899 --    32 C    1.371    29 C    1.363    31 O    1.040
    31   8 O    2.043 --    30 C    1.040    55 H    0.865
    32   6 C    3.988 --    33 C    1.453    30 C    1.371    56 H    0.970
                            28 C    0.102
    33   6 C    3.986 --    32 C    1.453    27 C    1.391    57 H    0.972
                            29 C    0.104
    34   6 C    3.929 --    26 C    1.321    38 N    1.316    35 C    1.119
    35   6 C    3.967 --    36 C    1.721    34 C    1.119    58 H    0.974
    36   6 C    3.966 --    35 C    1.721    37 C    1.118    59 H    0.976
    37   6 C    3.930 --     1 C    1.365    38 N    1.301    36 C    1.118
    38   7 N    3.010 --    34 C    1.316    37 C    1.301
    39   1 H    1.002 --     1 C    0.971
    40   1 H    0.998 --     3 C    0.977
    41   1 H    1.005 --     4 C    0.974
    42   1 H    0.986 --     6 N    0.874
    43   1 H    1.005 --     9 C    0.972
    44   1 H    0.999 --    10 C    0.970
    45   1 H    0.887 --    12 O    0.865
    46   1 H    0.999 --    13 C    0.971
    47   1 H    1.005 --    14 C    0.973
    48   1 H    1.005 --    16 C    0.974
    49   1 H    1.006 --    17 C    0.970
    50   1 H    1.006 --    22 C    0.971
    51   1 H    1.005 --    23 C    0.974
    52   1 H    0.987 --    25 N    0.873
    53   1 H    1.005 --    28 C    0.973
    54   1 H    0.999 --    29 C    0.971
    55   1 H    0.887 --    31 O    0.865
    56   1 H    0.999 --    32 C    0.970
    57   1 H    1.005 --    33 C    0.972
    58   1 H    1.005 --    35 C    0.974
    59   1 H    0.998 --    36 C    0.976
    60   6 C    3.924 --    96 C    1.365    61 C    1.346    98 H    0.971
    61   6 C    3.903 --    60 C    1.346    62 C    1.230    65 N    1.170
    62   6 C    3.952 --    63 C    1.594    61 C    1.230    99 H    0.977
    63   6 C    3.959 --    62 C    1.594    64 C    1.235   100 H    0.974
    64   6 C    3.896 --    66 C    1.303    63 C    1.235    65 N    1.176
    65   7 N    3.468 --    64 C    1.176    61 C    1.170   101 H    0.874
    66   6 C    3.939 --    74 C    1.332    64 C    1.303    67 C    1.033
    67   6 C    3.989 --    68 C    1.391    73 C    1.382    66 C    1.033
    68   6 C    3.986 --    69 C    1.453    67 C    1.391   102 H    0.972
                            72 C    0.105
    69   6 C    3.988 --    68 C    1.453    70 C    1.371   103 H    0.970
                            73 C    0.102
    70   6 C    3.900 --    69 C    1.371    72 C    1.364    71 O    1.040
    71   8 O    2.043 --    70 C    1.040   104 H    0.865
    72   6 C    3.990 --    73 C    1.467    70 C    1.364   105 H    0.971
                            68 C    0.105
    73   6 C    3.987 --    72 C    1.467    67 C    1.382   106 H    0.973
                            69 C    0.102
    74   6 C    3.915 --    66 C    1.332    77 N    1.288    75 C    1.127
    75   6 C    3.965 --    76 C    1.706    74 C    1.127   107 H    0.974
    76   6 C    3.964 --    75 C    1.706    78 C    1.131   108 H    0.970
    77   7 N    3.020 --    78 C    1.342    74 C    1.288
    78   6 C    3.914 --    77 N    1.342    79 C    1.258    76 C    1.131
    79   6 C    3.936 --    78 C    1.258    80 C    1.254   120 C    1.180
    80   6 C    3.890 --    79 C    1.254    81 C    1.251    84 N    1.187
    81   6 C    3.959 --    82 C    1.580    80 C    1.251   109 H    0.971
    82   6 C    3.955 --    81 C    1.580    83 C    1.243   110 H    0.974
    83   6 C    3.898 --    85 C    1.305    82 C    1.243    84 N    1.166
    84   7 N    3.474 --    80 C    1.187    83 C    1.166   111 H    0.873
    85   6 C    3.925 --    93 C    1.321    83 C    1.305    86 C    1.034
    86   6 C    3.989 --    92 C    1.391    87 C    1.381    85 C    1.034
    87   6 C    3.986 --    88 C    1.468    86 C    1.381   112 H    0.973
                            91 C    0.102
    88   6 C    3.990 --    87 C    1.468    89 C    1.363   113 H    0.971
                            92 C    0.104
    89   6 C    3.899 --    91 C    1.371    88 C    1.363    90 O    1.040
    90   8 O    2.043 --    89 C    1.040   114 H    0.865
    91   6 C    3.988 --    92 C    1.453    89 C    1.371   115 H    0.970
                            87 C    0.102
    92   6 C    3.986 --    91 C    1.453    86 C    1.391   116 H    0.972
                            88 C    0.104
    93   6 C    3.929 --    85 C    1.321    97 N    1.316    94 C    1.119
    94   6 C    3.967 --    95 C    1.721    93 C    1.119   117 H    0.974
    95   6 C    3.966 --    94 C    1.721    96 C    1.118   118 H    0.976
    96   6 C    3.930 --    60 C    1.365    97 N    1.301    95 C    1.118
    97   7 N    3.010 --    93 C    1.316    96 C    1.301
    98   1 H    1.002 --    60 C    0.971
    99   1 H    0.998 --    62 C    0.977
   100   1 H    1.005 --    63 C    0.974
   101   1 H    0.986 --    65 N    0.874
   102   1 H    1.005 --    68 C    0.972
   103   1 H    0.999 --    69 C    0.970
   104   1 H    0.887 --    71 O    0.865
   105   1 H    0.999 --    72 C    0.971
   106   1 H    1.005 --    73 C    0.973
   107   1 H    1.005 --    75 C    0.974
   108   1 H    1.006 --    76 C    0.970
   109   1 H    1.006 --    81 C    0.971
   110   1 H    1.005 --    82 C    0.974
   111   1 H    0.987 --    84 N    0.873
   112   1 H    1.005 --    87 C    0.973
   113   1 H    0.999 --    88 C    0.971
   114   1 H    0.887 --    90 O    0.865
   115   1 H    0.999 --    91 C    0.970
   116   1 H    1.005 --    92 C    0.972
   117   1 H    1.005 --    94 C    0.974
   118   1 H    0.998 --    95 C    0.976
   119   6 C    3.932 --   120 C    2.574    20 C    1.180
   120   6 C    3.932 --   119 C    2.574    79 C    1.180
 ---------------------------------------------------------------------------

           -------------------------------------------------
          | TOTAL ENERGY             -206.393186925657 Eh   |
          | GRADIENT NORM               0.000523334564 Eh/α |
          | HOMO-LUMO GAP               0.976830297382 eV   |
           -------------------------------------------------

 * finished run on 2022/07/28 at 11:51:38.258
