   * xtb version 6.5.1 (b24c23e) compiled by 'conda@728c89f4b128' on 2022-07-12
          program call               : xtb Co_NMA_C8_2.xyz --gfn 1 --opt -T 48

   ID    Z sym.   atoms
    1   27 Co     1, 67
    2    6 C      2-6, 8-12, 14-19, 21-26, 28-32, 34-40, 68-72, 74-78, 80-85,
                  87-92, 94-98, 100-106, 133-140
    3    7 N      7, 13, 20, 27, 33, 41, 73, 79, 86, 93, 99, 107
    4    1 H      42-66, 108-132

          :  Hamiltonian                  GFN1-xTB          :
 * total energy  :  -216.9261919 Eh     change        0.1541508E-08 Eh
 * total energy  :  -228.9608018 Eh     change       -0.1203461E+02 Eh
 * total energy  :  -230.3603342 Eh     change       -0.1399532E+01 Eh
 * total energy  :  -231.1014645 Eh     change       -0.7411304E+00 Eh
 * total energy  :  -231.5117574 Eh     change       -0.4102928E+00 Eh
 * total energy  :  -231.7212442 Eh     change       -0.2094868E+00 Eh
 * total energy  :  -231.8531041 Eh     change       -0.1318599E+00 Eh
 * total energy  :  -231.9528408 Eh     change       -0.9973666E-01 Eh
 * total energy  :  -232.0323667 Eh     change       -0.7952595E-01 Eh
 * total energy  :  -232.1112670 Eh     change       -0.7890028E-01 Eh
 * total energy  :  -232.7789328 Eh     change       -0.1073333E-03 Eh
 * total energy  :  -232.7789999 Eh     change       -0.6706695E-04 Eh
 * total energy  :  -232.7790361 Eh     change       -0.3622455E-04 Eh
 * total energy  :  -232.7790553 Eh     change       -0.1916286E-04 Eh
 * total energy  :  -232.7790823 Eh     change       -0.2697967E-04 Eh
 * total energy  :  -232.7790913 Eh     change       -0.9043254E-05 Eh
 * total energy  :  -232.7791007 Eh     change       -0.9411617E-05 Eh
 * total energy  :  -232.7791072 Eh     change       -0.6504951E-05 Eh
 * total energy  :  -232.7791105 Eh     change       -0.3265939E-05 Eh
   *** GEOMETRY OPTIMIZATION CONVERGED AFTER 68 ITERATIONS ***

 final structure:
================
140
 xtb: 6.5.1 (b24c23e)
Co          15.08222646850157        0.03751454669087       -0.03273900831767
C           11.71804815887854        0.12710688461236       -0.12039892466014
C           12.36557380850648        0.81359743255085        0.88523447869182
C           11.69993245945924        1.54207763757776        1.92120334841156
C           12.65481468857102        2.24395269368442        2.57777408976511
C           13.90092452050106        1.95637894522379        1.93027690994712
N           13.72182900822957        1.01803783339516        0.94628372266285
C           15.09114649004095        2.63245814330515        2.17696210653932
C           15.10321267144391        3.76457457972085        3.12524038268281
C           14.23998981260511        4.85220854070500        2.95894075806187
C           14.26540472440131        5.91633800477551        3.83958074222536
C           15.14943971119859        5.92123294066568        4.92637141203756
N           15.17463585190617        7.03372392985023        5.75124273288514
C           15.71280547759017        6.92723624248380        7.10025812486153
C           16.01615747028769        4.83719740072949        5.09694501563971
C           15.98927644295894        3.77935588841202        4.20533290604078
C           16.27372806375551        2.26886760368233        1.54546750869952
C           17.51592360752618        2.96630512786615        1.68755050813959
C           18.46640249473661        2.19786366427607        1.10041499678664
N           16.45339253260175        1.12190047124758        0.80717279512701
C           17.80016439043183        1.04267027207789        0.59070521984627
C           18.46377537440642       -0.08041128950439        0.08736680224960
C           17.76655508377092       -1.16479664627213       -0.45314949918599
C           18.39478623297634       -2.35592083118389       -0.92814535558909
C           17.43597122730304       -3.07316277847008       -1.56384850218224
C           16.22806159880628       -2.30788687989551       -1.48776693332308
N           16.42950461999791       -1.17356082076707       -0.73445523362341
C           15.06509717731403       -2.60490936349340       -2.18548180446033
C           15.05920594820940       -3.74430795502317       -3.12558221129174
C           15.99086689458848       -3.82009757819683       -4.16359201064207
C           15.99270846603950       -4.88375236812694       -5.04895143372373
C           15.05500033634848       -5.91211670498520       -4.91301188860266
N           15.04804242588106       -7.02877043412819       -5.73300293838829
C           15.63536884958474       -6.95637346732411       -7.06378457608304
C           14.12603906000660       -5.84716438597277       -3.86648294944764
C           14.12513870435443       -4.77658467364872       -2.99340493914747
C           13.90672583561211       -1.85282976059021       -2.01794252226730
C           12.69119692952842       -2.06168112185893       -2.74796010446740
C           11.74283492193224       -1.29291203440865       -2.15991240794602
C           12.38355369658582       -0.60432413299705       -1.08193869188250
N           13.72245866864741       -0.90504905657711       -1.04508616798460
H           10.63552124539554        0.16330104639203       -0.15619871903962
H           10.63727136190843        1.51314198196171        2.10332899130222
H           12.53757877111630        2.90103759882383        3.42434161408742
H           13.56121212915888        4.87187362705559        2.11334267050614
H           13.60011915045269        6.76028535965003        3.69020938109151
H           14.31893092524347        7.57389455298422        5.71413455036374
H           16.79076334911293        6.76417959014063        7.06064399996300
H           15.24416944823212        6.10814078544405        7.65781894181579
H           15.52119621432936        7.86918271038765        7.61435525126308
H           16.71484177121143        4.81383456894378        5.92415837173034
H           16.65303772726441        2.93575974673942        4.36075988059813
H           17.63564024197480        3.92206556512817        2.17121508290052
H           19.52570664812647        2.38077916581511        1.01759232398478
H           19.43716013594353       -2.59490345302477       -0.79086935812538
H           17.52913099317364       -4.03380545169049       -2.04364720042130
H           16.71119240771288       -3.01946104511069       -4.29213113220720
H           16.72706206353896       -4.90831138805087       -5.84467345314139
H           14.16202251696389       -7.51908263808141       -5.72510822102458
H           15.23223096168048       -6.11341228080916       -7.63663844278703
H           15.40743915915342       -7.88706715136985       -7.58342135629179
H           16.71888362460823       -6.85443593712272       -6.98936375840808
H           13.40493699089999       -6.64842084092653       -3.74358161276565
H           13.40788803556384       -4.74737290371964       -2.18045241560497
H           12.58872580988086       -2.71520555758187       -3.59926494057846
H           10.69987542328024       -1.19280276295349       -2.41582450363078
Co          33.57688147762460       -0.00912559517090       -0.00624264231779
C           36.93822274853454        0.08913235039639       -0.15322603774696
C           36.29161722057565       -1.04384998126090       -0.60157629897480
C           36.95529949734759       -2.21827068585127       -1.07768572666804
C           35.99988789805784       -3.01149338880321       -1.62030455970367
C           34.75597338024422       -2.31144567971736       -1.49117112855835
N           34.93701290807275       -1.14115517945254       -0.80052022992050
C           33.56690879835967       -2.69526520791385       -2.10320377311236
C           33.55577502686084       -3.86875631621318       -2.99961021633665
C           34.42825780048213       -3.94963290061913       -4.08962609677078
C           34.40752118764524       -5.04394593941511       -4.93253812041735
C           33.51888752814437       -6.10262513548182       -4.70433869769680
N           33.50015791547369       -7.15423018280488       -5.60578729988749
C           32.95584444940298       -8.44461803461840       -5.20648613119701
C           32.64209521817606       -6.02626465217768       -3.61771762060056
C           32.66466931917834       -4.92278688989662       -2.78310671027230
C           32.38575918909979       -1.99679481554984       -1.88917997172949
C           31.14331960660727       -2.28766878030654       -2.53887542519283
C           30.19224112465857       -1.55111306266410       -1.91362183842418
N           32.20642566453306       -1.02239423593451       -0.93370747200290
C           30.85827153364152       -0.80244083218488       -0.89639689255264
C           30.19364006692198       -0.07019474029916        0.09188120375545
C           30.89023778517710        0.69188543564970        1.03465193885233
C           30.26388210668246        1.40919001610319        2.09834591179124
C           31.22189831871553        2.18968999370369        2.65678227084936
C           32.42745381160177        1.95557661962012        1.92083803399224
N           32.22433729668419        0.97967320813541        0.97243274524046
C           33.58987328687360        2.70330186973163        2.05604248940498
C           33.59546855963022        3.86810024366684        2.96430673034147
C           32.65873000357075        4.89388657874753        2.81711493830018
C           32.65433549989449        5.98786351302150        3.66466357008993
C           33.59458472784585        6.08127366815489        4.69547238721137
N           33.59895054385877        7.12231427285453        5.60945222956922
C           33.00292866122130        8.40306869307094        5.25525129960678
C           34.52894580557113        5.04976277657756        4.85487812686391
C           34.53214916662933        3.96613567564172        3.99804615145522
C           34.74765923255731        2.37547895507884        1.35825329874500
C           35.96415877983363        3.13224623666540        1.40457560067944
C           36.91240826925903        2.38984978463752        0.78392121694835
C           36.27126855353691        1.18789116434525        0.34643751919791
N           34.93005823189252        1.22257481273410        0.63877008211776
H           38.02086052580447        0.11631485126496       -0.19320566579152
H           38.01665077511188       -2.39453677473965       -1.00185822814120
H           36.11568060733293       -3.98414052736936       -2.07066560243749
H           35.11123567504396       -3.13131696512135       -4.28973965112225
H           35.08060274824500       -5.08713442513907       -5.78237802795168
H           34.36116432177805       -7.24014763015883       -6.13168244978889
H           31.87623702535825       -8.36876498924688       -5.07038115618772
H           33.41196217554459       -8.80455632355760       -4.27725750115588
H           33.15723036210307       -9.15723887618859       -6.00623950600178
H           31.93919318309865       -6.82575268379747       -3.41834864045352
H           31.99374676183105       -4.88627761702472       -1.93167796801827
H           31.02362354644134       -2.96723799840995       -3.36686635084333
H           29.13237595563660       -1.51284509584171       -2.10761440589846
H           29.22351137616047        1.32095059422123        2.36740592959503
H           31.12992148003727        2.86369377495578        3.49286896661842
H           31.93613486531429        4.84323612768381        2.00983263739980
H           31.91585794973741        6.76668062436891        3.51923913868754
H           34.48564520877634        7.22475132134448        6.08769639158875
H           33.40170723941466        8.78490710587601        4.30846411105341
H           33.22802820345636        9.11118077178958        6.05277260752483
H           31.91987664604164        8.30181797579493        5.17381609689133
H           35.25212990066630        5.10586311278863        5.66170722825214
H           35.25313918449777        3.16909675281426        4.14334094324322
H           36.06729031108873        4.10527893018052        1.85715927454588
H           37.95627669774492        2.61565306698433        0.63354342690869
C           19.86384122369855       -0.11683951288973        0.12290051441622
C           21.08862544976266       -0.13817321395594        0.15052949891113
C           22.42931106117152       -0.15322108692101        0.17277952282627
C           23.66067189403095       -0.15580990874442        0.18962897179257
C           24.99687834893929       -0.15499330569508        0.19010795822818
C           26.22827157882734       -0.14326241448610        0.18114647012893
C           27.56893597234107       -0.12282120854534        0.16256672449506
C           28.79362253177614       -0.09820347325784        0.13460048219957

          :  Hamiltonian                  GFN1-xTB          :
         :: total energy            -232.779110495341 Eh    ::
         :: gradient norm              0.000643955783 Eh/a0 ::
         :: HOMO-LUMO gap              0.007780605032 eV    ::
         :: SCC energy              -236.555028071140 Eh    ::
         :: repulsion energy           3.893333811902 Eh    ::

    * Orbital Energies and Occupations

         #    Occupation            Energy/Eh            Energy/eV
      -------------------------------------------------------------
         1        2.0000           -0.7798793             -21.2216
       ...           ...                  ...                  ...
       204        2.0000           -0.3915341             -10.6542
       205        2.0000           -0.3915002             -10.6533
       206        2.0000           -0.3874134             -10.5421
       207        2.0000           -0.3873263             -10.5397
       208        2.0000           -0.3845717             -10.4647
       209        2.0000           -0.3845569             -10.4643
       210        1.9998           -0.3812953             -10.3756
       211        1.9998           -0.3812494             -10.3743
       212        1.9998           -0.3811941             -10.3728
       213        1.9998           -0.3811620             -10.3719
       214        1.9994           -0.3800366             -10.3413
       215        1.8534           -0.3746829             -10.1956
       216        1.1486           -0.3725570             -10.1378 (HOMO)
       217        0.9992           -0.3722710             -10.1300 (LUMO)
       218                         -0.3302283              -8.9860
       219                         -0.3204854              -8.7209
       220                         -0.3177440              -8.6463
       221                         -0.3176696              -8.6442
       222                         -0.2945393              -8.0148
       223                         -0.2944877              -8.0134
       224                         -0.2841478              -7.7321
       225                         -0.2815641              -7.6617
       226                         -0.2813003              -7.6546
       227                         -0.2686985              -7.3117
       ...                                ...                  ...
       470                          1.6116241              43.8545
      -------------------------------------------------------------
                  HL-Gap            0.0002859 Eh            0.0078 eV

Wiberg/Mayer (AO) data.
largest (>0.10) Wiberg bond orders for each atom

     #   Z sym  total        # sym  WBO       # sym  WBO       # sym  WBO
 ---------------------------------------------------------------------------
     1  27 Co   3.061 --     7 N    0.640    41 N    0.636    27 N    0.635
                            20 N    0.632
     2   6 C    3.927 --     3 C    1.365    40 C    1.363    42 H    0.970
     3   6 C    3.926 --     2 C    1.365     7 N    1.199     4 C    1.177
     4   6 C    3.958 --     5 C    1.644     3 C    1.177    43 H    0.975
     5   6 C    3.963 --     4 C    1.644     6 C    1.180    44 H    0.973
     6   6 C    3.918 --     8 C    1.311     7 N    1.215     5 C    1.180
     7   7 N    3.342 --     6 C    1.215     3 C    1.199     1 Co   0.640
     8   6 C    3.931 --    17 C    1.324     6 C    1.311     9 C    1.043
     9   6 C    3.985 --    16 C    1.378    10 C    1.369     8 C    1.043
    10   6 C    3.985 --    11 C    1.480     9 C    1.369    45 H    0.972
    11   6 C    3.987 --    10 C    1.480    12 C    1.341    46 H    0.971
    12   6 C    3.949 --    15 C    1.350    11 C    1.341    13 N    1.114
    13   7 N    3.182 --    12 C    1.114    14 C    0.971    47 H    0.930
    14   6 C    3.967 --    50 H    0.990    48 H    0.986    49 H    0.983
                            13 N    0.971
    15   6 C    3.988 --    16 C    1.468    12 C    1.350    51 H    0.970
    16   6 C    3.985 --    15 C    1.468     9 C    1.378    52 H    0.972
    17   6 C    3.915 --     8 C    1.324    20 N    1.195    18 C    1.185
    18   6 C    3.959 --    19 C    1.631    17 C    1.185    53 H    0.973
    19   6 C    3.959 --    18 C    1.631    21 C    1.194    54 H    0.974
    20   7 N    3.346 --    21 C    1.230    17 C    1.195     1 Co   0.632
    21   6 C    3.904 --    22 C    1.254    20 N    1.230    19 C    1.194
    22   6 C    3.931 --    23 C    1.256    21 C    1.254   133 C    1.197
    23   6 C    3.904 --    22 C    1.256    27 N    1.231    24 C    1.193
    24   6 C    3.960 --    25 C    1.633    23 C    1.193    55 H    0.974
    25   6 C    3.959 --    24 C    1.633    26 C    1.184    56 H    0.973
    26   6 C    3.916 --    28 C    1.328    27 N    1.193    25 C    1.184
    27   7 N    3.344 --    23 C    1.231    26 C    1.193     1 Co   0.635
    28   6 C    3.931 --    26 C    1.328    37 C    1.309    29 C    1.042
    29   6 C    3.985 --    30 C    1.379    36 C    1.370    28 C    1.042
    30   6 C    3.985 --    31 C    1.468    29 C    1.379    57 H    0.972
    31   6 C    3.988 --    30 C    1.468    32 C    1.350    58 H    0.970
    32   6 C    3.950 --    31 C    1.350    35 C    1.342    33 N    1.114
    33   7 N    3.181 --    32 C    1.114    34 C    0.971    59 H    0.930
    34   6 C    3.967 --    61 H    0.990    62 H    0.986    60 H    0.984
                            33 N    0.971
    35   6 C    3.988 --    36 C    1.480    32 C    1.342    63 H    0.971
    36   6 C    3.985 --    35 C    1.480    29 C    1.370    64 H    0.972
    37   6 C    3.918 --    28 C    1.309    41 N    1.216    38 C    1.180
    38   6 C    3.963 --    39 C    1.643    37 C    1.180    65 H    0.973
    39   6 C    3.958 --    38 C    1.643    40 C    1.178    66 H    0.975
    40   6 C    3.926 --     2 C    1.363    41 N    1.199    39 C    1.178
    41   7 N    3.344 --    37 C    1.216    40 C    1.199     1 Co   0.636
    42   1 H    1.000 --     2 C    0.970
    43   1 H    0.998 --     4 C    0.975
    44   1 H    1.005 --     5 C    0.973
    45   1 H    1.006 --    10 C    0.972
    46   1 H    0.999 --    11 C    0.971
    47   1 H    0.965 --    13 N    0.930
    48   1 H    1.011 --    14 C    0.986
    49   1 H    1.003 --    14 C    0.983
    50   1 H    1.007 --    14 C    0.990
    51   1 H    1.001 --    15 C    0.970
    52   1 H    1.006 --    16 C    0.972
    53   1 H    1.005 --    18 C    0.973
    54   1 H    1.001 --    19 C    0.974
    55   1 H    1.001 --    24 C    0.974
    56   1 H    1.005 --    25 C    0.973
    57   1 H    1.006 --    30 C    0.972
    58   1 H    1.001 --    31 C    0.970
    59   1 H    0.965 --    33 N    0.930
    60   1 H    1.003 --    34 C    0.984
    61   1 H    1.007 --    34 C    0.990
    62   1 H    1.012 --    34 C    0.986
    63   1 H    0.999 --    35 C    0.971
    64   1 H    1.005 --    36 C    0.972
    65   1 H    1.005 --    38 C    0.973
    66   1 H    0.998 --    39 C    0.975
    67  27 Co   3.059 --   107 N    0.640    73 N    0.636    86 N    0.636
                            93 N    0.631
    68   6 C    3.926 --   106 C    1.365    69 C    1.363   108 H    0.970
    69   6 C    3.926 --    68 C    1.363    73 N    1.199    70 C    1.179
    70   6 C    3.957 --    71 C    1.642    69 C    1.179   109 H    0.975
    71   6 C    3.963 --    70 C    1.642    72 C    1.181   110 H    0.973
    72   6 C    3.918 --    74 C    1.309    73 N    1.215    71 C    1.181
    73   7 N    3.343 --    72 C    1.215    69 C    1.199    67 Co   0.636
    74   6 C    3.931 --    83 C    1.326    72 C    1.309    75 C    1.044
    75   6 C    3.985 --    82 C    1.378    76 C    1.369    74 C    1.044
    76   6 C    3.985 --    77 C    1.480    75 C    1.369   111 H    0.972
    77   6 C    3.987 --    76 C    1.480    78 C    1.341   112 H    0.971
    78   6 C    3.949 --    81 C    1.350    77 C    1.341    79 N    1.114
    79   7 N    3.182 --    78 C    1.114    80 C    0.971   113 H    0.930
    80   6 C    3.967 --   116 H    0.990   114 H    0.986   115 H    0.983
                            79 N    0.971
    81   6 C    3.988 --    82 C    1.468    78 C    1.350   117 H    0.970
    82   6 C    3.985 --    81 C    1.468    75 C    1.378   118 H    0.972
    83   6 C    3.915 --    74 C    1.326    86 N    1.194    84 C    1.184
    84   6 C    3.959 --    85 C    1.633    83 C    1.184   119 H    0.973
    85   6 C    3.959 --    84 C    1.633    87 C    1.193   120 H    0.974
    86   7 N    3.344 --    87 C    1.230    83 C    1.194    67 Co   0.636
    87   6 C    3.904 --    88 C    1.256    86 N    1.230    85 C    1.193
    88   6 C    3.931 --    87 C    1.256    89 C    1.254   140 C    1.197
    89   6 C    3.904 --    88 C    1.254    93 N    1.230    90 C    1.194
    90   6 C    3.959 --    91 C    1.631    89 C    1.194   121 H    0.974
    91   6 C    3.959 --    90 C    1.631    92 C    1.185   122 H    0.973
    92   6 C    3.916 --    94 C    1.325    93 N    1.194    91 C    1.185
    93   7 N    3.345 --    89 C    1.230    92 C    1.194    67 Co   0.631
    94   6 C    3.931 --    92 C    1.325   103 C    1.311    95 C    1.042
    95   6 C    3.985 --    96 C    1.379   102 C    1.370    94 C    1.042
    96   6 C    3.985 --    97 C    1.468    95 C    1.379   123 H    0.972
    97   6 C    3.988 --    96 C    1.468    98 C    1.350   124 H    0.970
    98   6 C    3.950 --    97 C    1.350   101 C    1.342    99 N    1.114
    99   7 N    3.181 --    98 C    1.114   100 C    0.971   125 H    0.930
   100   6 C    3.967 --   127 H    0.990   128 H    0.986   126 H    0.984
                            99 N    0.971
   101   6 C    3.988 --   102 C    1.480    98 C    1.342   129 H    0.971
   102   6 C    3.985 --   101 C    1.480    95 C    1.370   130 H    0.972
   103   6 C    3.918 --    94 C    1.311   107 N    1.215   104 C    1.180
   104   6 C    3.963 --   105 C    1.644   103 C    1.180   131 H    0.973
   105   6 C    3.958 --   104 C    1.644   106 C    1.177   132 H    0.975
   106   6 C    3.926 --    68 C    1.365   107 N    1.198   105 C    1.177
   107   7 N    3.343 --   103 C    1.215   106 C    1.198    67 Co   0.640
   108   1 H    1.000 --    68 C    0.970
   109   1 H    0.998 --    70 C    0.975
   110   1 H    1.005 --    71 C    0.973
   111   1 H    1.006 --    76 C    0.972
   112   1 H    0.999 --    77 C    0.971
   113   1 H    0.965 --    79 N    0.930
   114   1 H    1.011 --    80 C    0.986
   115   1 H    1.003 --    80 C    0.983
   116   1 H    1.007 --    80 C    0.990
   117   1 H    1.001 --    81 C    0.970
   118   1 H    1.006 --    82 C    0.972
   119   1 H    1.005 --    84 C    0.973
   120   1 H    1.001 --    85 C    0.974
   121   1 H    1.001 --    90 C    0.974
   122   1 H    1.005 --    91 C    0.973
   123   1 H    1.006 --    96 C    0.972
   124   1 H    1.001 --    97 C    0.970
   125   1 H    0.965 --    99 N    0.930
   126   1 H    1.003 --   100 C    0.984
   127   1 H    1.007 --   100 C    0.990
   128   1 H    1.011 --   100 C    0.986
   129   1 H    0.999 --   101 C    0.971
   130   1 H    1.006 --   102 C    0.972
   131   1 H    1.005 --   104 C    0.973
   132   1 H    0.998 --   105 C    0.975
   133   6 C    3.871 --   134 C    2.427    22 C    1.197   136 C    0.185
   134   6 C    3.930 --   133 C    2.427   135 C    1.352
   135   6 C    3.887 --   136 C    2.323   134 C    1.352   138 C    0.180
   136   6 C    3.920 --   135 C    2.323   137 C    1.377   133 C    0.185
   137   6 C    3.920 --   138 C    2.323   136 C    1.377   140 C    0.185
   138   6 C    3.887 --   137 C    2.323   139 C    1.352   135 C    0.180
   139   6 C    3.930 --   140 C    2.427   138 C    1.352
   140   6 C    3.871 --   139 C    2.427    88 C    1.197   137 C    0.185
 ---------------------------------------------------------------------------

           -------------------------------------------------
          | TOTAL ENERGY             -232.779110495341 Eh   |
          | GRADIENT NORM               0.000643955783 Eh/α |
          | HOMO-LUMO GAP               0.007780605032 eV   |
           -------------------------------------------------

 * finished run on 2022/07/29 at 23:09:11.549
