   * xtb version 6.5.1 (b24c23e) compiled by 'conda@728c89f4b128' on 2022-07-12
          program call               : xtb Fe_Ph3OH_C4_3.xyz --gfn 1 --opt -T 48

   ID    Z sym.   atoms
    1   26 Fe     1, 63, 133
    2    6 C      2-6, 8-11, 13, 15, 17-20, 22-27, 29-32, 34, 36, 38-42,
                  64-68, 70-73, 75, 77, 79-82, 84-89, 91-94, 96, 98, 100-104,
                  125-132, 134-138, 140-143, 145, 147, 149-152, 154-159,
                  161-164, 166, 168, 170-174
    3    7 N      7, 21, 28, 43, 69, 83, 90, 105, 139, 153, 160, 175
    4    8 O      12, 14, 16, 33, 35, 37, 74, 76, 78, 95, 97, 99, 144, 146,
                  148, 165, 167, 169
    5    1 H      44-62, 106-124, 176-193

          :  Hamiltonian                  GFN1-xTB          :
 * total energy  :  -380.9434086 Eh     change       -0.2078019E-07 Eh
 * total energy  :  -381.3548709 Eh     change       -0.4114623E+00 Eh
 * total energy  :  -381.5238079 Eh     change       -0.1689370E+00 Eh
 * total energy  :  -381.6244482 Eh     change       -0.1006403E+00 Eh
 * total energy  :  -381.6930614 Eh     change       -0.6861315E-01 Eh
 * total energy  :  -381.7301529 Eh     change       -0.3709155E-01 Eh
 * total energy  :  -381.7541594 Eh     change       -0.2400650E-01 Eh
 * total energy  :  -381.7689396 Eh     change       -0.1478023E-01 Eh
 * total energy  :  -381.7809254 Eh     change       -0.1198577E-01 Eh
 * total energy  :  -381.7908532 Eh     change       -0.9927756E-02 Eh
 * total energy  :  -381.8466104 Eh     change       -0.1115784E-04 Eh
 * total energy  :  -381.8466094 Eh     change        0.9516518E-06 Eh
 * total energy  :  -381.8466170 Eh     change       -0.7545578E-05 Eh
 * total energy  :  -381.8466224 Eh     change       -0.5398905E-05 Eh
 * total energy  :  -381.8466268 Eh     change       -0.4433888E-05 Eh
 * total energy  :  -381.8466345 Eh     change       -0.7705036E-05 Eh
 * total energy  :  -381.8466329 Eh     change        0.1638158E-05 Eh
 * total energy  :  -381.8466411 Eh     change       -0.8208379E-05 Eh
 * total energy  :  -381.8466444 Eh     change       -0.3359832E-05 Eh
   *** GEOMETRY OPTIMIZATION CONVERGED AFTER 73 ITERATIONS ***

 final structure:
================
193
 xtb: 6.5.1 (b24c23e)
Fe          33.31117942528516        0.01600835558036       -0.04347222375266
C           29.92038562992492        0.05464093740839       -0.14574554254041
C           30.57635835998705        1.26770420874336       -0.13758483651338
C           29.89829697983265        2.52858784218990       -0.14785221056171
C           30.85566706757485        3.48319760238609       -0.08766965520625
C           32.11849592099667        2.80304679741042       -0.05226069557232
N           31.93369522503122        1.44724522861007       -0.08061214790529
C           33.34390857281389        3.45322212134469        0.05177387992041
C           33.35655387489483        4.93643427479404        0.09484050627168
C           32.90150467706057        5.67231765019328       -0.99918530697786
C           32.91798957065657        7.06168566265601       -0.95936603624682
O           32.48541144088993        7.78713450950187       -2.01912255854117
C           33.38343583771339        7.71915222957704        0.18072500462282
O           33.38468008525402        9.08909050797363        0.19252692630761
C           33.83379165604901        6.98350333150366        1.27410589785686
O           34.27195884173995        7.69865736586966        2.35737555910329
C           33.82609003556666        5.59473534185135        1.23446827686807
C           34.55408148654941        2.77796266163549        0.11813732237461
C           35.82718881674357        3.43220106266145        0.18704228326013
C           36.76794241158679        2.45791478833198        0.19279022988740
N           34.72106305807186        1.41351745840316        0.07414201815259
C           36.06817918560598        1.21395137898552        0.11696164172306
C           36.72282495340203       -0.02254644461077        0.05086381145810
C           36.04478960622657       -1.24399459130474       -0.04472468162464
C           36.71939800941574       -2.50106391253339       -0.13514455659431
C           35.75809605428615       -3.45361032480124       -0.18402830592250
C           34.49835468660724       -2.77388398548798       -0.11397919506832
N           34.69286325364613       -1.41391627131316       -0.04814759929550
C           33.27183642975247       -3.42157543108651       -0.12500076292833
C           33.25275050593768       -4.90448047776638       -0.16600966422714
C           33.79893336495881       -5.64210739735919        0.88435005693940
C           33.77552825287390       -7.03143171889614        0.84572365823333
O           34.29526988527295       -7.75869955722363        1.86430852585023
C           33.21315568358800       -7.68718443605475       -0.25080968645593
O           33.20831076472618       -9.05725423622549       -0.26363963535328
C           32.67265600794795       -6.94990783567942       -1.30143103988938
O           32.14331586892718       -7.66341069391232       -2.34455195784419
C           32.68555008105032       -5.56131780027426       -1.26137820815028
C           32.05735926169046       -2.74287677040027       -0.10529297392002
C           30.77959021505125       -3.39450192849411       -0.07799526987758
C           29.84186779197426       -2.41825441459336       -0.09151493900446
C           30.54788217159058       -1.17325460932436       -0.11390588819953
N           31.90186741322464       -1.38334951097909       -0.10640615040597
H           28.83643907015072        0.06708637263913       -0.17160583801231
H           28.82703768387903        2.64676313495732       -0.18618148126561
H           30.72983015649674        4.55319282184827       -0.05830508936367
H           32.55152689370686        5.17233495765948       -1.89302016508660
H           32.57478382881572        8.72956555300146       -1.80095648850570
H           33.73533565092573        9.38050025326238        1.04926296049517
H           34.56426353818911        7.10833473592957        3.06422678167331
H           34.16569320035173        5.02802695983466        2.09341506080168
H           35.97408611028097        4.49961122505865        0.21169396999334
H           37.84064337151106        2.55778424094184        0.23340266840826
H           37.79031848435287       -2.62241533113600       -0.16074193711662
H           35.88080357437308       -4.52094721821911       -0.26838321767640
H           34.22588800929629       -5.14330934491597        1.74476027431085
H           34.18298731927749       -8.70071106791832        1.65522471872143
H           32.78282489498660       -9.34680130551750       -1.08641402737876
H           31.79862176123563       -7.07152136191103       -3.02601140931693
H           32.27444259593594       -4.99341230566108       -2.08768979831014
H           30.63120101477018       -4.46159982355424       -0.04332521451371
H           28.76756068613961       -2.51248805894652       -0.08078908141561
Fe          60.13968471931963       -0.05244420785744       -0.00125016127588
C           63.53027059669189       -0.08300118688256       -0.10715913017343
C           62.87303146836691       -1.28825414532705       -0.23904601905322
C           63.54933941398145       -2.53996535015345       -0.39850525259800
C           62.59031744723653       -3.49299158801888       -0.45867643587063
C           61.32847906394700       -2.81988219809178       -0.34434692583262
N           61.51527674749210       -1.47103051153498       -0.20785866596989
C           60.10214046432403       -3.47632925245080       -0.31977087694543
C           60.08790632888224       -4.95365753100516       -0.45904421282609
C           60.53628194473480       -5.54964586052250       -1.63766334567711
C           60.51826486717675       -6.93337302233749       -1.76890461035741
O           60.94395406448358       -7.52320419370903       -2.91220736512931
C           60.05888345109238       -7.72579525843812       -0.71543223105171
O           60.05676616790678       -9.08687616478026       -0.87173171807336
C           59.61565665280587       -7.12992048785449        0.46264055383240
O           59.18375749064545       -7.97259915200712        1.45287258889974
C           59.62416941081023       -5.74679539529788        0.59376376535206
C           58.89339873845776       -2.81305132192973       -0.16625628658842
C           57.61963855567184       -3.46966201070679       -0.16857629870999
C           56.68084600135838       -2.50273404249218       -0.03478095978210
N           58.72863274259487       -1.45328823728535       -0.04109246668313
C           57.38235883070094       -1.25944942412076        0.03662240120336
C           56.72922332984591       -0.02357435679633        0.12594495977847
C           57.40784561100196        1.20068286317801        0.16796662036602
C           56.73383583730815        2.45984470145030        0.22911299131346
C           57.69574695794407        3.41195484795342        0.27421393851400
C           58.95524258593774        2.72867265216958        0.25096647812439
N           58.75968772424724        1.36975091640732        0.16749521276406
C           60.18233252462198        3.37344079847277        0.29606422767461
C           60.20323763081228        4.85229411429921        0.41453208183719
C           59.67760288970643        5.47246782008215        1.54790219529594
C           59.70261085086693        6.85792883788022        1.65831882450689
O           59.20342309467878        7.47109259486569        2.75877600982580
C           60.24503016564903        7.62787430192605        0.62790604699824
O           60.25149204937307        8.99111372925124        0.76228510672286
C           60.76460404128131        7.00786935935902       -0.50578614652515
O           61.27469009302706        7.82949482777676       -1.47622618319067
C           60.75125117629969        5.62290212097080       -0.61432448531609
C           61.39604195651255        2.69602960231972        0.23299761205132
C           62.67431459191071        3.34051002587323        0.32484860349441
C           63.61115579977157        2.37012441212780        0.20959701758862
C           62.90400351790710        1.13487890893972        0.05746501536433
N           61.55018902556595        1.34415834241339        0.08805544701307
H           64.61425131936706       -0.09379901474497       -0.13233273250102
H           64.62054992636487       -2.65460248837192       -0.44746656188607
H           62.71418361681708       -4.55885339133415       -0.55970614273769
H           60.88210185018021       -4.94372234074502       -2.46510229926762
H           60.85289689026473       -8.48517691871160       -2.81192775270517
H           59.71051748935497       -9.48103901874877       -0.05529114775536
H           58.89603610951971       -7.47311851176935        2.22829220522452
H           59.28990465323941       -5.28981097051741        1.51772678270647
H           57.47105517112205       -4.53186255850486       -0.27431308292097
H           55.60833635914489       -2.60577935178258        0.00212365878212
H           55.66285402822811        2.58327781111456        0.23135879914727
H           57.57362598281244        4.48202451249630        0.31191523898589
H           59.26556849915583        4.88392594045282        2.35736685490743
H           59.31094154728944        8.43039079891089        2.64931840990836
H           60.65804167176297        9.36849299368707       -0.03404919465645
H           61.60344587714788        7.31483713527993       -2.22494015443169
H           61.14675025255143        5.14691509738150       -1.50388498639108
H           62.82316865965247        4.39831199312649        0.46919588484552
H           64.68555130511702        2.46184321911824        0.22873662123948
C           39.34727838177216       -0.03889554399095        0.08132083866522
C           38.12290977569525       -0.03529981302899        0.07056012212553
C           40.69261893720227       -0.04158873783273        0.08527500985949
C           41.91722751550184       -0.03841120610774        0.08206117175470
C           52.76017678361636        0.00024837658488        0.17121672155050
C           51.53559846731076        0.00008698499779        0.15906979613015
C           54.10525240503087       -0.00496134977268        0.17026614009390
C           55.32959802681453       -0.01202891137161        0.15585782496484
Fe          46.72715125019343       -0.01253061643830        0.04472814891296
C           43.31597309058432       -0.03104663487370        0.06698973217546
C           43.98345795970796        1.17696493618198        0.31298298022306
C           43.30847395329047        2.39980333440806        0.61107897946502
C           44.25698651588428        3.36865411675421        0.63817653820821
C           45.50622343179357        2.73079861615021        0.35136787784036
N           45.32629245454079        1.37842523265626        0.19691945713725
C           46.71177899520356        3.40844317688132        0.20237514808974
C           46.69880452137357        4.88807049141893        0.25550712423927
C           47.43851915395633        5.56749287834880        1.22464529976948
C           47.42818416729167        6.95791776679782        1.28880043259583
O           48.13168414205805        7.63077443030127        2.23548150137532
C           46.67908188452631        7.68967690061515        0.36084701520468
O           46.65551904298621        9.04632257881026        0.39200212846851
C           45.94570128418906        7.00190360153629       -0.61041577041916
O           45.23890793033414        7.77870944521404       -1.49100502601579
C           45.94218311462991        5.61560983193698       -0.66578675878298
C           47.92658979446264        2.75856137204993        0.01730740428819
C           49.17849785797530        3.42949880124130       -0.16464381319053
C           50.13811871514795        2.47152879330190       -0.16565756209903
N           48.11774699420093        1.39874810031468        0.06481925958894
C           49.46635543109904        1.22141911899911       -0.00489535130131
C           50.13736026747640       -0.00264855416236        0.12742069426914
C           49.46698843922764       -1.23138097533662        0.19991266221485
C           50.13843633661376       -2.48468293500862        0.33986343940208
C           49.19097899483512       -3.44673441560711        0.21923852020378
C           47.94571468020988       -2.77381446927083        0.00222010397582
N           48.12643247580441       -1.41305763535271        0.03659277228668
C           46.74456620063400       -3.42210424167522       -0.26065178200708
C           46.75725732428860       -4.89749445455105       -0.40595362864901
C           47.51620542583585       -5.48915200371306       -1.41658851521821
C           47.51709652298302       -6.87122449627922       -1.56368843870037
O           48.23306882781743       -7.45753453409230       -2.55119234150496
C           46.76709854528819       -7.66285448980639       -0.69114649728995
O           46.80043162795163       -9.03764270228975       -0.86930043365215
C           46.04215024924161       -7.07515657048642        0.34398004136001
O           45.33808072106018       -7.84659032395278        1.22104780625412
C           46.02059735701393       -5.69108041980236        0.47395384738294
C           45.53283910584926       -2.75237373072118       -0.37959020596112
C           44.28484169694575       -3.39332736712374       -0.66684790850810
C           43.32374452856443       -2.44388832429780       -0.55419369817767
C           43.99087089215857       -1.22606581470568       -0.21862443122118
N           45.33885487976749       -1.41107027597944       -0.15384156742159
H           42.24653658157750        2.49209414694951        0.77259781782695
H           44.13051228456327        4.41946097191108        0.84176895690783
H           48.01138159622234        5.00970178158613        1.95678943845335
H           48.60743010486990        7.02267023729961        2.81644363792753
H           46.08461655962825        9.35743351889905       -0.32908665767346
H           44.76418201979218        7.23144064281164       -2.13007214480499
H           45.37524970668501        5.10541597273226       -1.43550074859761
H           49.30023245226844        4.49418195573373       -0.27918808024955
H           51.20503929388742        2.58702950372132       -0.26858222444956
H           51.19790250079637       -2.59903977715517        0.50323455821178
H           49.31489154327894       -4.51578337932778        0.27606046098606
H           48.08488567388544       -4.88183859976735       -2.10874620908047
H           48.10877094615149       -8.41955755202003       -2.48994223299699
H           45.92107707775082       -9.42006599497032       -0.75103655610853
H           45.65336282276660       -8.76097201973260        1.19359294120804
H           45.45409150020267       -5.24478365728678        1.28089343208995
H           44.16737242476668       -4.43423715090157       -0.92014801510201
H           42.25846773411968       -2.54456715932579       -0.68573906259725

          :  Hamiltonian                  GFN1-xTB          :
         :: total energy            -381.846644441045 Eh    ::
         :: gradient norm              0.000287644732 Eh/a0 ::
         :: HOMO-LUMO gap              0.047540104951 eV    ::
         :: SCC energy              -386.975109189419 Eh    ::
         :: repulsion energy           5.302269479156 Eh    ::

    * Orbital Energies and Occupations

         #    Occupation            Energy/Eh            Energy/eV
      -------------------------------------------------------------
         1        2.0000           -0.8150606             -22.1789
       ...           ...                  ...                  ...
       320        2.0000           -0.3972764             -10.8104
       321        2.0000           -0.3971528             -10.8071
       322        1.9996           -0.3907792             -10.6336
       323        1.9929           -0.3881352             -10.5617
       324        1.9916           -0.3879744             -10.5573
       325        1.9916           -0.3879706             -10.5572
       326        1.9718           -0.3868113             -10.5257
       327        1.9649           -0.3865984             -10.5199
       328        1.9597           -0.3864658             -10.5163
       329        1.9587           -0.3864424             -10.5156
       330        1.9561           -0.3863817             -10.5140
       331        1.9556           -0.3863703             -10.5137
       332        1.1903           -0.3831411             -10.4258 (HOMO)
       333        0.3789           -0.3813940             -10.3783 (LUMO)
       334        0.3444           -0.3812834             -10.3753
       335        0.3438           -0.3812813             -10.3752
       336                         -0.3454723              -9.4008
       337                         -0.3337236              -9.0811
       338                         -0.3310033              -9.0071
       339                         -0.3278380              -8.9209
       340                         -0.3276707              -8.9164
       341                         -0.3251213              -8.8470
       342                         -0.3052962              -8.3075
       343                         -0.3018821              -8.2146
       ...                                ...                  ...
       675                          1.5080592              41.0364
      -------------------------------------------------------------
                  HL-Gap            0.0017471 Eh            0.0475 eV

Wiberg/Mayer (AO) data.
largest (>0.10) Wiberg bond orders for each atom

     #   Z sym  total        # sym  WBO       # sym  WBO       # sym  WBO
 ---------------------------------------------------------------------------
     1  26 Fe   3.075 --     7 N    0.660    43 N    0.659    28 N    0.653
                            21 N    0.652
     2   6 C    3.916 --     3 C    1.364    42 C    1.362    44 H    0.970
     3   6 C    3.926 --     2 C    1.364     7 N    1.210     4 C    1.173
     4   6 C    3.959 --     5 C    1.650     3 C    1.173    45 H    0.975
     5   6 C    3.962 --     4 C    1.650     6 C    1.175    46 H    0.973
     6   6 C    3.919 --     8 C    1.312     7 N    1.228     5 C    1.175
     7   7 N    3.376 --     6 C    1.228     3 C    1.210     1 Fe   0.660
     8   6 C    3.919 --    18 C    1.336     6 C    1.312     9 C    1.025
     9   6 C    3.987 --    10 C    1.399    17 C    1.386     8 C    1.025
    10   6 C    3.977 --     9 C    1.399    11 C    1.380    47 H    0.970
    11   6 C    3.917 --    10 C    1.380    13 C    1.324    12 O    1.053
    12   8 O    2.049 --    11 C    1.053    48 H    0.847
    13   6 C    3.903 --    15 C    1.340    11 C    1.324    14 O    1.021
    14   8 O    2.021 --    13 C    1.021    49 H    0.846
    15   6 C    3.905 --    17 C    1.384    13 C    1.340    16 O    1.014
    16   8 O    2.025 --    15 C    1.014    50 H    0.860
    17   6 C    3.973 --     9 C    1.386    15 C    1.384    51 H    0.969
    18   6 C    3.918 --     8 C    1.336    21 N    1.200    19 C    1.179
    19   6 C    3.957 --    20 C    1.638    18 C    1.179    52 H    0.973
    20   6 C    3.960 --    19 C    1.638    22 C    1.188    53 H    0.973
    21   7 N    3.374 --    22 C    1.250    18 C    1.200     1 Fe   0.652
    22   6 C    3.905 --    21 N    1.250    23 C    1.247    20 C    1.188
    23   6 C    3.915 --    24 C    1.249    22 C    1.247   126 C    1.207
    24   6 C    3.905 --    28 N    1.250    23 C    1.249    25 C    1.187
    25   6 C    3.961 --    26 C    1.639    24 C    1.187    54 H    0.973
    26   6 C    3.957 --    25 C    1.639    27 C    1.178    55 H    0.973
    27   6 C    3.918 --    29 C    1.338    28 N    1.200    26 C    1.178
    28   7 N    3.374 --    24 C    1.250    27 C    1.200     1 Fe   0.653
    29   6 C    3.919 --    27 C    1.338    39 C    1.310    30 C    1.026
    30   6 C    3.988 --    31 C    1.398    38 C    1.386    29 C    1.026
    31   6 C    3.977 --    30 C    1.398    32 C    1.380    56 H    0.970
    32   6 C    3.917 --    31 C    1.380    34 C    1.324    33 O    1.053
    33   8 O    2.049 --    32 C    1.053    57 H    0.848
    34   6 C    3.903 --    36 C    1.340    32 C    1.324    35 O    1.021
    35   8 O    2.021 --    34 C    1.021    58 H    0.846
    36   6 C    3.905 --    38 C    1.385    34 C    1.340    37 O    1.014
    37   8 O    2.025 --    36 C    1.014    59 H    0.860
    38   6 C    3.973 --    30 C    1.386    36 C    1.385    60 H    0.969
    39   6 C    3.920 --    29 C    1.310    43 N    1.228    40 C    1.176
    40   6 C    3.962 --    41 C    1.648    39 C    1.176    61 H    0.973
    41   6 C    3.959 --    40 C    1.648    42 C    1.174    62 H    0.975
    42   6 C    3.926 --     2 C    1.362    43 N    1.211    41 C    1.174
    43   7 N    3.375 --    39 C    1.228    42 C    1.211     1 Fe   0.659
    44   1 H    1.001 --     2 C    0.970
    45   1 H    0.998 --     4 C    0.975
    46   1 H    1.005 --     5 C    0.973
    47   1 H    0.999 --    10 C    0.970
    48   1 H    0.877 --    12 O    0.847
    49   1 H    0.876 --    14 O    0.846
    50   1 H    0.881 --    16 O    0.860
    51   1 H    1.000 --    17 C    0.969
    52   1 H    1.006 --    19 C    0.973
    53   1 H    1.002 --    20 C    0.973
    54   1 H    1.002 --    25 C    0.973
    55   1 H    1.005 --    26 C    0.973
    56   1 H    0.999 --    31 C    0.970
    57   1 H    0.878 --    33 O    0.848
    58   1 H    0.876 --    35 O    0.846
    59   1 H    0.881 --    37 O    0.860
    60   1 H    1.000 --    38 C    0.969
    61   1 H    1.006 --    40 C    0.973
    62   1 H    0.998 --    41 C    0.975
    63  26 Fe   3.074 --    69 N    0.660   105 N    0.659    90 N    0.652
                            83 N    0.652
    64   6 C    3.915 --    65 C    1.364   104 C    1.362   106 H    0.970
    65   6 C    3.925 --    64 C    1.364    69 N    1.210    66 C    1.173
    66   6 C    3.959 --    67 C    1.650    65 C    1.173   107 H    0.975
    67   6 C    3.962 --    66 C    1.650    68 C    1.175   108 H    0.973
    68   6 C    3.919 --    70 C    1.312    69 N    1.228    67 C    1.175
    69   7 N    3.375 --    68 C    1.228    65 C    1.210    63 Fe   0.660
    70   6 C    3.918 --    80 C    1.337    68 C    1.312    71 C    1.025
    71   6 C    3.987 --    72 C    1.399    79 C    1.386    70 C    1.025
    72   6 C    3.977 --    71 C    1.399    73 C    1.380   109 H    0.970
    73   6 C    3.917 --    72 C    1.380    75 C    1.323    74 O    1.053
    74   8 O    2.049 --    73 C    1.053   110 H    0.847
    75   6 C    3.903 --    77 C    1.340    73 C    1.323    76 O    1.021
    76   8 O    2.021 --    75 C    1.021   111 H    0.846
    77   6 C    3.905 --    79 C    1.384    75 C    1.340    78 O    1.014
    78   8 O    2.025 --    77 C    1.014   112 H    0.860
    79   6 C    3.973 --    71 C    1.386    77 C    1.384   113 H    0.969
    80   6 C    3.918 --    70 C    1.337    83 N    1.200    81 C    1.179
    81   6 C    3.957 --    82 C    1.638    80 C    1.179   114 H    0.973
    82   6 C    3.960 --    81 C    1.638    84 C    1.188   115 H    0.973
    83   7 N    3.374 --    84 C    1.251    80 C    1.200    63 Fe   0.652
    84   6 C    3.905 --    83 N    1.251    85 C    1.247    82 C    1.188
    85   6 C    3.914 --    86 C    1.248    84 C    1.247   132 C    1.208
    86   6 C    3.905 --    90 N    1.251    85 C    1.248    87 C    1.187
    87   6 C    3.960 --    88 C    1.639    86 C    1.187   116 H    0.973
    88   6 C    3.957 --    87 C    1.639    89 C    1.178   117 H    0.973
    89   6 C    3.918 --    91 C    1.338    90 N    1.199    88 C    1.178
    90   7 N    3.374 --    86 C    1.251    89 C    1.199    63 Fe   0.652
    91   6 C    3.918 --    89 C    1.338   101 C    1.310    92 C    1.026
    92   6 C    3.987 --    93 C    1.399   100 C    1.386    91 C    1.026
    93   6 C    3.977 --    92 C    1.399    94 C    1.380   118 H    0.970
    94   6 C    3.917 --    93 C    1.380    96 C    1.324    95 O    1.053
    95   8 O    2.049 --    94 C    1.053   119 H    0.847
    96   6 C    3.903 --    98 C    1.340    94 C    1.324    97 O    1.022
    97   8 O    2.021 --    96 C    1.022   120 H    0.846
    98   6 C    3.905 --   100 C    1.384    96 C    1.340    99 O    1.014
    99   8 O    2.025 --    98 C    1.014   121 H    0.860
   100   6 C    3.973 --    92 C    1.386    98 C    1.384   122 H    0.969
   101   6 C    3.919 --    91 C    1.310   105 N    1.228   102 C    1.176
   102   6 C    3.962 --   103 C    1.648   101 C    1.176   123 H    0.973
   103   6 C    3.959 --   102 C    1.648   104 C    1.174   124 H    0.975
   104   6 C    3.925 --    64 C    1.362   105 N    1.210   103 C    1.174
   105   7 N    3.375 --   101 C    1.228   104 C    1.210    63 Fe   0.659
   106   1 H    1.001 --    64 C    0.970
   107   1 H    0.998 --    66 C    0.975
   108   1 H    1.005 --    67 C    0.973
   109   1 H    0.999 --    72 C    0.970
   110   1 H    0.877 --    74 O    0.847
   111   1 H    0.876 --    76 O    0.846
   112   1 H    0.881 --    78 O    0.860
   113   1 H    1.000 --    79 C    0.969
   114   1 H    1.006 --    81 C    0.973
   115   1 H    1.002 --    82 C    0.973
   116   1 H    1.002 --    87 C    0.973
   117   1 H    1.005 --    88 C    0.973
   118   1 H    0.999 --    93 C    0.970
   119   1 H    0.877 --    95 O    0.847
   120   1 H    0.876 --    97 O    0.846
   121   1 H    0.881 --    99 O    0.860
   122   1 H    1.000 --   100 C    0.969
   123   1 H    1.005 --   102 C    0.973
   124   1 H    0.998 --   103 C    0.975
   125   6 C    3.923 --   126 C    2.441   127 C    1.332
   126   6 C    3.910 --   125 C    2.441    23 C    1.207   128 C    0.195
   127   6 C    3.918 --   128 C    2.438   125 C    1.332
   128   6 C    3.914 --   127 C    2.438   134 C    1.213   126 C    0.195
   129   6 C    3.917 --   130 C    2.437   131 C    1.333
   130   6 C    3.913 --   129 C    2.437   155 C    1.213   132 C    0.195
   131   6 C    3.922 --   132 C    2.440   129 C    1.333
   132   6 C    3.910 --   131 C    2.440    85 C    1.208   130 C    0.195
   133  26 Fe   3.051 --   175 N    0.646   160 N    0.645   153 N    0.645
                           139 N    0.644
   134   6 C    3.900 --   135 C    1.243   174 C    1.243   128 C    1.213
   135   6 C    3.906 --   139 N    1.248   134 C    1.243   136 C    1.194
   136   6 C    3.959 --   137 C    1.630   135 C    1.194   176 H    0.974
   137   6 C    3.958 --   136 C    1.630   138 C    1.186   177 H    0.973
   138   6 C    3.915 --   140 C    1.317   139 N    1.208   137 C    1.186
   139   7 N    3.363 --   135 C    1.248   138 C    1.208   133 Fe   0.644
   140   6 C    3.911 --   150 C    1.322   138 C    1.317   141 C    1.034
   141   6 C    3.986 --   142 C    1.389   149 C    1.380   140 C    1.034
   142   6 C    3.973 --   141 C    1.389   143 C    1.382   178 H    0.969
   143   6 C    3.914 --   142 C    1.382   145 C    1.319   144 O    1.045
   144   8 O    2.054 --   143 C    1.045   179 H    0.866
   145   6 C    3.912 --   147 C    1.325   143 C    1.319   146 O    1.054
   146   8 O    2.049 --   145 C    1.054   180 H    0.849
   147   6 C    3.903 --   149 C    1.392   145 C    1.325   148 O    1.014
   148   8 O    2.027 --   147 C    1.014   181 H    0.860
   149   6 C    3.973 --   147 C    1.392   141 C    1.380   182 H    0.969
   150   6 C    3.915 --   140 C    1.322   153 N    1.204   151 C    1.185
   151   6 C    3.958 --   152 C    1.631   150 C    1.185   183 H    0.973
   152   6 C    3.959 --   151 C    1.631   154 C    1.193   184 H    0.974
   153   7 N    3.363 --   154 C    1.251   150 C    1.204   133 Fe   0.645
   154   6 C    3.906 --   153 N    1.251   155 C    1.241   152 C    1.193
   155   6 C    3.900 --   156 C    1.245   154 C    1.241   130 C    1.213
   156   6 C    3.905 --   160 N    1.248   155 C    1.245   157 C    1.192
   157   6 C    3.959 --   158 C    1.633   156 C    1.192   185 H    0.974
   158   6 C    3.958 --   157 C    1.633   159 C    1.184   186 H    0.973
   159   6 C    3.915 --   161 C    1.320   160 N    1.206   158 C    1.184
   160   7 N    3.363 --   156 C    1.248   159 C    1.206   133 Fe   0.645
   161   6 C    3.910 --   171 C    1.323   159 C    1.320   162 C    1.029
   162   6 C    3.988 --   170 C    1.395   163 C    1.395   161 C    1.029
   163   6 C    3.976 --   162 C    1.395   164 C    1.378   187 H    0.970
   164   6 C    3.917 --   163 C    1.378   166 C    1.331   165 O    1.057
   165   8 O    2.052 --   164 C    1.057   188 H    0.847
   166   6 C    3.888 --   168 C    1.346   164 C    1.331   167 O    0.981
   167   8 O    1.985 --   166 C    0.981   189 H    0.863
   168   6 C    3.910 --   170 C    1.379   166 C    1.346   169 O    1.028
   169   8 O    2.031 --   168 C    1.028   190 H    0.862
   170   6 C    3.975 --   162 C    1.395   168 C    1.379   191 H    0.970
   171   6 C    3.915 --   161 C    1.323   175 N    1.204   172 C    1.184
   172   6 C    3.958 --   173 C    1.633   171 C    1.184   192 H    0.973
   173   6 C    3.959 --   172 C    1.633   174 C    1.192   193 H    0.973
   174   6 C    3.906 --   175 N    1.251   134 C    1.243   173 C    1.192
   175   7 N    3.364 --   174 C    1.251   171 C    1.204   133 Fe   0.646
   176   1 H    1.002 --   136 C    0.974
   177   1 H    1.005 --   137 C    0.973
   178   1 H    1.001 --   142 C    0.969
   179   1 H    0.886 --   144 O    0.866
   180   1 H    0.880 --   146 O    0.849
   181   1 H    0.881 --   148 O    0.860
   182   1 H    1.001 --   149 C    0.969
   183   1 H    1.005 --   151 C    0.973
   184   1 H    1.002 --   152 C    0.974
   185   1 H    1.002 --   157 C    0.974
   186   1 H    1.005 --   158 C    0.973
   187   1 H    0.999 --   163 C    0.970
   188   1 H    0.880 --   165 O    0.847
   189   1 H    0.883 --   167 O    0.863
   190   1 H    0.885 --   169 O    0.862
   191   1 H    1.000 --   170 C    0.970
   192   1 H    1.005 --   172 C    0.973
   193   1 H    1.002 --   173 C    0.973
 ---------------------------------------------------------------------------

           -------------------------------------------------
          | TOTAL ENERGY             -381.846644441045 Eh   |
          | GRADIENT NORM               0.000287644732 Eh/α |
          | HOMO-LUMO GAP               0.047540104951 eV   |
           -------------------------------------------------

 * finished run on 2022/07/29 at 21:40:22.814
