   * xtb version 6.5.1 (b24c23e) compiled by 'conda@728c89f4b128' on 2022-07-12
          program call               : xtb Ni_H_C6_3.xyz --gfn 1 --opt -T 48

   ID    Z sym.   atoms
    1   28 Ni     1, 37, 85
    2    6 C      2-6, 8-11, 13-18, 20-24, 38-42, 44-47, 49-54, 56-60, 73-84,
                  86-90, 92-95, 97-102, 104-108
    3    7 N      7, 12, 19, 25, 43, 48, 55, 61, 91, 96, 103, 109
    4    1 H      26-36, 62-72, 110-119

          :  Hamiltonian                  GFN1-xTB          :
 * total energy  :  -219.0706334 Eh     change        0.1034371E-07 Eh
 * total energy  :  -219.3246865 Eh     change       -0.2540531E+00 Eh
 * total energy  :  -219.4090734 Eh     change       -0.8438692E-01 Eh
 * total energy  :  -219.4426182 Eh     change       -0.3354476E-01 Eh
 * total energy  :  -219.4594171 Eh     change       -0.1679890E-01 Eh
 * total energy  :  -219.4776670 Eh     change       -0.1824985E-01 Eh
 * total energy  :  -219.5015212 Eh     change       -0.2385423E-01 Eh
 * total energy  :  -219.5308106 Eh     change       -0.2928939E-01 Eh
 * total energy  :  -219.5674163 Eh     change       -0.3660567E-01 Eh
 * total energy  :  -219.6080964 Eh     change       -0.4068014E-01 Eh
 * total energy  :  -219.8890447 Eh     change       -0.6233823E-03 Eh
 * total energy  :  -219.8890592 Eh     change       -0.1445186E-04 Eh
 * total energy  :  -219.8890791 Eh     change       -0.1993748E-04 Eh
 * total energy  :  -219.8890624 Eh     change        0.1668664E-04 Eh
 * total energy  :  -219.8890755 Eh     change       -0.1306587E-04 Eh
 * total energy  :  -219.8890817 Eh     change       -0.6204768E-05 Eh
 * total energy  :  -219.8890755 Eh     change        0.6178586E-05 Eh
 * total energy  :  -219.8890887 Eh     change       -0.1320095E-04 Eh
 * total energy  :  -219.8890895 Eh     change       -0.7499519E-06 Eh
   *** GEOMETRY OPTIMIZATION CONVERGED AFTER 48 ITERATIONS ***

 final structure:
================
119
 xtb: 6.5.1 (b24c23e)
Ni          13.59307659100251       -0.01821454650497       -0.01277372270136
C           10.18190759974088       -0.06273269806184       -0.01026589313015
C           10.84241716087014       -0.91222874901825       -0.87370658255990
C           10.17456624134551       -1.80904625679344       -1.77033945452665
C           11.14016440559236       -2.46178084244108       -2.45820686320841
C           12.39523701785543       -1.96458271819486       -1.97754910182032
N           12.20371770317670       -1.01547991318254       -1.00629219895673
C           13.61881694284972       -2.40089575046039       -2.44186026153945
C           14.83147072810951       -1.93897477559687       -1.97559732833584
C           16.09369815200905       -2.41081022688179       -2.45680724227465
C           17.04681188117764       -1.74273358783106       -1.76425078932507
N           15.00797889850920       -0.98720310215228       -0.99791133629649
C           16.36277841545334       -0.86466628666666       -0.86558265466921
C           17.02455533763787       -0.00391747973313        0.01513372479926
C           16.34168289339089        0.85851726892754        0.87761271291315
C           17.00384351227749        1.75410321526913        1.77530726828081
C           16.03419406645462        2.43210641875443        2.43452356103975
C           14.78382309229731        1.94511762442313        1.93758837035667
N           14.98395241900123        0.97687915817377        0.98087447126445
C           13.55987720980215        2.40148814421786        2.37927636060305
C           12.34746711159447        1.93102097556730        1.91897767036440
C           11.08043202181859        2.40189963066347        2.39481317657894
C           10.13140626179284        1.70489125910713        1.72763746742115
C           10.82126672440146        0.81243191320587        0.84341612300485
N           12.17953473812550        0.95815390548794        0.96704033504094
H            9.09827609684429       -0.07956599814714       -0.00672685819422
H            9.10333089846164       -1.90789041465937       -1.84743734463417
H           11.03573827158071       -3.21472707451267       -3.22334275765009
H           13.62839902761367       -3.15768892137272       -3.21775145343695
H           16.21384733603006       -3.15838138517409       -3.22466109232457
H           18.11919899177698       -1.82311867967061       -1.84137825333368
H           18.07417134757094        1.83935728535169        1.87336748145705
H           16.13567788083150        3.19379738399943        3.19112250557093
H           13.55052556680905        3.17426163298266        3.13926247330884
H           10.95725761207946        3.16702777782276        3.14492898374934
H            9.05808945975640        1.77280787522359        1.80916609710835
Ni          45.68027658285005        0.00467408835591       -0.00009849358972
C           49.08911054851036        0.03962824319495       -0.11175763354060
C           48.42562110995357        1.24912920038700       -0.13197635795007
C           49.08978996135875        2.51806964380779       -0.18663772175471
C           48.12256028608536        3.46444663055613       -0.16573239752618
C           46.86976802600890        2.77112195903093       -0.10752032983739
N           47.06473338150369        1.41379582771662       -0.08494743186806
C           45.64463797794007        3.40516907856678       -0.09609527865260
C           44.43383339134101        2.74547625130252       -0.07785274708706
C           43.16946734693131        3.41498025658160       -0.10535644686042
C           42.21946087507150        2.44970646184633       -0.09742752620801
N           44.26164371054789        1.38096773540055       -0.04751431563787
C           42.90731943308209        1.19591850107092       -0.05766455918995
C           42.24990087502464       -0.03692168266494       -0.02019271228906
C           42.93612363898836       -1.25212458248059        0.05424460702910
C           42.27802477289290       -2.51975694131014        0.13578089262642
C           43.25049839553898       -3.45845760911081        0.22232950038527
C           44.49873347382430       -2.75973032995496        0.18496747284361
N           44.29441446770771       -1.40317776799538        0.08298809707738
C           45.72482806704759       -3.38930000251437        0.22909205630992
C           46.93464969694625       -2.73060899031896        0.15430039604141
C           48.20345482234963       -3.39672853547744        0.15905812569204
C           49.14808772374102       -2.43417425306271        0.04612967506259
C           48.45420643855952       -1.18167321897230       -0.01777787630407
N           47.09756162682519       -1.37307148647250        0.04747086351137
H           50.17192963063989        0.05029954876470       -0.15579232217745
H           50.16005988849545        2.64415636209857       -0.23014112726415
H           48.22436857238561        4.53789014087160       -0.19076285864086
H           45.63197770508352        4.48877412048412       -0.11768299769589
H           43.04596554740377        4.48594452686636       -0.13164850398505
H           41.14679700550489        2.55728387395655       -0.11377002555826
H           41.20818101139641       -2.65351044512071        0.13022898065617
H           43.15231814312678       -4.52949091348447        0.30080119375775
H           45.73783355259126       -4.46994031742724        0.31199990254530
H           48.33058332403763       -4.46503231054984        0.23544961801161
H           50.22101980174501       -2.53866749613730        0.01194204338042
C           22.22604382686184        0.00486197741207        0.01389009523130
C           20.99820112391134        0.00283980001959        0.01958101720566
C           19.65308627615492        0.00219790518580        0.02350856921406
C           18.42972209713932        0.00080505244175        0.02486833510327
C           23.57102479107325        0.00716992675878        0.00501166066313
C           24.79445459644681        0.00292830333578       -0.00624893879836
C           38.27537558859336       -0.06778865735189       -0.04613854799243
C           37.04778186400100       -0.06681288086111       -0.04138503883729
C           35.70219345837369       -0.06354281690409       -0.03460807023475
C           34.47906650545266       -0.05341125655883       -0.02325326233924
C           39.62107185309090       -0.05996776751821       -0.04386952533096
C           40.84410651793797       -0.05307699075678       -0.03484314664387
Ni          29.63650617732365       -0.02256802872835       -0.01740688198033
C           26.19911612893089       -0.00132816971695       -0.01351663448689
C           26.87930989466679        0.90964166273659        0.80031596098394
C           26.21360086102037        1.85700330651615        1.63990025683847
C           27.18084924862521        2.56557110939249        2.27028730455527
C           28.43233094399613        2.04589241364480        1.81244835337643
N           28.23648024440256        1.02761827063929        0.90849079375043
C           29.65491261059238        2.52085720998198        2.23743291337928
C           30.87055080899312        2.03207201638468        1.80796271739552
C           32.12947838131031        2.53854684430554        2.26025470803953
C           33.08641995099460        1.81983547116894        1.62568808318839
N           31.05153170832638        1.01106446527551        0.90417765480504
C           32.40706754544178        0.87839971017925        0.79026480334216
C           33.07366835441933       -0.04617824405997       -0.01886408863686
C           32.39387405923343       -0.96366636772128       -0.82511121303830
C           33.05948207885368       -1.91690516152925       -1.65821143878191
C           32.09222117893879       -2.62228280001198       -2.29203592215515
C           30.84080770221139       -2.09557406196611       -1.84201958677549
N           31.03654799504434       -1.07698300841070       -0.93862469271548
C           29.61830427899880       -2.56332025847350       -2.27533049557789
C           28.40271545387226       -2.06962751775963       -1.85162984248808
C           27.14393143437748       -2.57016165450880       -2.31073697411886
C           26.18688429468418       -1.85263188180013       -1.67492101401248
C           26.86607617655359       -0.91753521241303       -0.83239028710700
N           28.22146795145286       -1.05217182831399       -0.94371882742444
H           25.14292220191181        1.95331903192518        1.72220724778280
H           27.07656251468408        3.36891871662866        2.98205138146672
H           29.66078852386612        3.33180504096907        2.95670119398777
H           32.24525812540872        3.34046934680078        2.97185779329791
H           34.15842409088809        1.90405799638053        1.70402840815949
H           34.13010791509255       -2.01787726456228       -1.73540623265099
H           32.19641835945865       -3.42735974989703       -3.00185169827204
H           29.61256945644278       -3.37318508661751       -2.99581524627305
H           27.02825003690278       -3.36825078473454       -3.02664569141272
H           25.11492538429082       -1.93430175679294       -1.75641430907342

          :  Hamiltonian                  GFN1-xTB          :
         :: total energy            -219.889089487166 Eh    ::
         :: gradient norm              0.000616310983 Eh/a0 ::
         :: HOMO-LUMO gap              1.118113111417 eV    ::
         :: SCC energy              -223.520445626104 Eh    ::
         :: repulsion energy           3.733599682417 Eh    ::

    * Orbital Energies and Occupations

         #    Occupation            Energy/Eh            Energy/eV
      -------------------------------------------------------------
         1        2.0000           -0.7834480             -21.3187
       ...           ...                  ...                  ...
       193        2.0000           -0.3994852             -10.8705
       194        2.0000           -0.3994116             -10.8685
       195        2.0000           -0.3992717             -10.8647
       196        2.0000           -0.3989617             -10.8563
       197        2.0000           -0.3985559             -10.8453
       198        2.0000           -0.3984613             -10.8427
       199        2.0000           -0.3984288             -10.8418
       200        2.0000           -0.3976316             -10.8201
       201        2.0000           -0.3975275             -10.8173
       202        2.0000           -0.3975071             -10.8167
       203        2.0000           -0.3974051             -10.8139
       204        2.0000           -0.3925500             -10.6818
       205        2.0000           -0.3857239             -10.4961 (HOMO)
       206                         -0.3446340              -9.3780 (LUMO)
       207                         -0.3361646              -9.1475
       208                         -0.3326114              -9.0508
       209                         -0.3318203              -9.0293
       210                         -0.3308182              -9.0020
       211                         -0.3307478              -9.0001
       212                         -0.3306762              -8.9982
       213                         -0.3304734              -8.9926
       214                         -0.3302156              -8.9856
       215                         -0.3069767              -8.3533
       216                         -0.2979796              -8.1084
       ...                                ...                  ...
       427                          1.5779136              42.9372
      -------------------------------------------------------------
                  HL-Gap            0.0410899 Eh            1.1181 eV

Wiberg/Mayer (AO) data.
largest (>0.10) Wiberg bond orders for each atom

     #   Z sym  total        # sym  WBO       # sym  WBO       # sym  WBO
 ---------------------------------------------------------------------------
     1  28 Ni   3.011 --    25 N    0.665     7 N    0.664    12 N    0.661
                            19 N    0.661
     2   6 C    3.939 --    24 C    1.365     3 C    1.365    26 H    0.970
     3   6 C    3.923 --     2 C    1.365     7 N    1.218     4 C    1.170
     4   6 C    3.960 --     5 C    1.655     3 C    1.170    27 H    0.975
     5   6 C    3.962 --     4 C    1.655     6 C    1.171    28 H    0.975
     6   6 C    3.921 --     8 C    1.363     7 N    1.218     5 C    1.171
     7   7 N    3.406 --     3 C    1.218     6 C    1.218     1 Ni   0.664
     8   6 C    3.944 --     9 C    1.370     6 C    1.363    29 H    0.970
     9   6 C    3.916 --     8 C    1.370    12 N    1.202    10 C    1.177
    10   6 C    3.958 --    11 C    1.643     9 C    1.177    30 H    0.975
    11   6 C    3.961 --    10 C    1.643    13 C    1.186    31 H    0.973
    12   7 N    3.410 --    13 C    1.244     9 C    1.202     1 Ni   0.661
    13   6 C    3.903 --    14 C    1.264    12 N    1.244    11 C    1.186
    14   6 C    3.948 --    15 C    1.264    13 C    1.264    76 C    1.184
    15   6 C    3.903 --    14 C    1.264    19 N    1.244    16 C    1.186
    16   6 C    3.961 --    17 C    1.643    15 C    1.186    32 H    0.973
    17   6 C    3.958 --    16 C    1.643    18 C    1.177    33 H    0.975
    18   6 C    3.916 --    20 C    1.370    19 N    1.202    17 C    1.177
    19   7 N    3.410 --    15 C    1.244    18 C    1.202     1 Ni   0.661
    20   6 C    3.944 --    18 C    1.370    21 C    1.363    34 H    0.970
    21   6 C    3.921 --    20 C    1.363    25 N    1.218    22 C    1.171
    22   6 C    3.962 --    23 C    1.655    21 C    1.171    35 H    0.975
    23   6 C    3.960 --    22 C    1.655    24 C    1.170    36 H    0.975
    24   6 C    3.923 --     2 C    1.365    25 N    1.218    23 C    1.170
    25   7 N    3.406 --    24 C    1.218    21 C    1.218     1 Ni   0.665
    26   1 H    1.000 --     2 C    0.970
    27   1 H    0.998 --     4 C    0.975
    28   1 H    0.997 --     5 C    0.975
    29   1 H    1.000 --     8 C    0.970
    30   1 H    0.997 --    10 C    0.975
    31   1 H    1.002 --    11 C    0.973
    32   1 H    1.002 --    16 C    0.973
    33   1 H    0.997 --    17 C    0.975
    34   1 H    1.000 --    20 C    0.970
    35   1 H    0.997 --    22 C    0.975
    36   1 H    0.998 --    23 C    0.975
    37  28 Ni   3.012 --    61 N    0.665    43 N    0.665    48 N    0.661
                            55 N    0.661
    38   6 C    3.940 --    60 C    1.365    39 C    1.365    62 H    0.970
    39   6 C    3.923 --    38 C    1.365    43 N    1.218    40 C    1.170
    40   6 C    3.960 --    41 C    1.655    39 C    1.170    63 H    0.975
    41   6 C    3.962 --    40 C    1.655    42 C    1.171    64 H    0.975
    42   6 C    3.921 --    44 C    1.363    43 N    1.217    41 C    1.171
    43   7 N    3.406 --    39 C    1.218    42 C    1.217    37 Ni   0.665
    44   6 C    3.944 --    45 C    1.369    42 C    1.363    65 H    0.970
    45   6 C    3.916 --    44 C    1.369    48 N    1.202    46 C    1.177
    46   6 C    3.958 --    47 C    1.643    45 C    1.177    66 H    0.975
    47   6 C    3.961 --    46 C    1.643    49 C    1.186    67 H    0.973
    48   7 N    3.410 --    49 C    1.243    45 C    1.202    37 Ni   0.661
    49   6 C    3.904 --    50 C    1.265    48 N    1.243    47 C    1.186
    50   6 C    3.949 --    51 C    1.266    49 C    1.265    84 C    1.180
    51   6 C    3.904 --    50 C    1.266    55 N    1.243    52 C    1.186
    52   6 C    3.961 --    53 C    1.643    51 C    1.186    68 H    0.973
    53   6 C    3.958 --    52 C    1.643    54 C    1.177    69 H    0.975
    54   6 C    3.916 --    56 C    1.369    55 N    1.202    53 C    1.177
    55   7 N    3.410 --    51 C    1.243    54 C    1.202    37 Ni   0.661
    56   6 C    3.944 --    54 C    1.369    57 C    1.363    70 H    0.970
    57   6 C    3.921 --    56 C    1.363    61 N    1.217    58 C    1.171
    58   6 C    3.962 --    59 C    1.655    57 C    1.171    71 H    0.975
    59   6 C    3.960 --    58 C    1.655    60 C    1.170    72 H    0.975
    60   6 C    3.923 --    38 C    1.365    61 N    1.218    59 C    1.170
    61   7 N    3.406 --    60 C    1.218    57 C    1.217    37 Ni   0.665
    62   1 H    1.000 --    38 C    0.970
    63   1 H    0.998 --    40 C    0.975
    64   1 H    0.997 --    41 C    0.975
    65   1 H    1.000 --    44 C    0.970
    66   1 H    0.997 --    46 C    0.975
    67   1 H    1.002 --    47 C    0.973
    68   1 H    1.002 --    52 C    0.973
    69   1 H    0.997 --    53 C    0.975
    70   1 H    1.000 --    56 C    0.970
    71   1 H    0.997 --    58 C    0.975
    72   1 H    0.998 --    59 C    0.975
    73   6 C    3.929 --    74 C    2.375    77 C    1.331    76 C    0.191
    74   6 C    3.927 --    73 C    2.375    75 C    1.331    78 C    0.191
    75   6 C    3.939 --    76 C    2.457    74 C    1.331
    76   6 C    3.892 --    75 C    2.457    14 C    1.184    73 C    0.191
    77   6 C    3.937 --    78 C    2.455    73 C    1.331
    78   6 C    3.892 --    77 C    2.455    86 C    1.186    74 C    0.191
    79   6 C    3.926 --    80 C    2.378    83 C    1.327    82 C    0.191
    80   6 C    3.927 --    79 C    2.378    81 C    1.328    84 C    0.191
    81   6 C    3.936 --    82 C    2.459    80 C    1.328
    82   6 C    3.891 --    81 C    2.459    98 C    1.183    79 C    0.191
    83   6 C    3.939 --    84 C    2.461    79 C    1.327
    84   6 C    3.891 --    83 C    2.461    50 C    1.180    80 C    0.191
    85  28 Ni   2.997 --    96 N    0.660    91 N    0.660   109 N    0.660
                           103 N    0.660
    86   6 C    3.939 --   108 C    1.262    87 C    1.262    78 C    1.186
    87   6 C    3.903 --    86 C    1.262    91 N    1.245    88 C    1.187
    88   6 C    3.959 --    89 C    1.640    87 C    1.187   110 H    0.973
    89   6 C    3.959 --    88 C    1.640    90 C    1.179   111 H    0.975
    90   6 C    3.914 --    92 C    1.367    91 N    1.201    89 C    1.179
    91   7 N    3.404 --    87 C    1.245    90 C    1.201    85 Ni   0.660
    92   6 C    3.939 --    90 C    1.367    93 C    1.366   112 H    0.970
    93   6 C    3.914 --    92 C    1.366    96 N    1.202    94 C    1.179
    94   6 C    3.959 --    95 C    1.641    93 C    1.179   113 H    0.975
    95   6 C    3.959 --    94 C    1.641    97 C    1.187   114 H    0.973
    96   7 N    3.404 --    97 C    1.244    93 C    1.202    85 Ni   0.660
    97   6 C    3.904 --    98 C    1.263    96 N    1.244    95 C    1.187
    98   6 C    3.939 --    97 C    1.263    99 C    1.263    82 C    1.183
    99   6 C    3.904 --    98 C    1.263   103 N    1.244   100 C    1.187
   100   6 C    3.959 --   101 C    1.641    99 C    1.187   115 H    0.973
   101   6 C    3.959 --   100 C    1.641   102 C    1.179   116 H    0.975
   102   6 C    3.914 --   104 C    1.366   103 N    1.202   101 C    1.179
   103   7 N    3.404 --    99 C    1.244   102 C    1.202    85 Ni   0.660
   104   6 C    3.939 --   105 C    1.367   102 C    1.366   117 H    0.970
   105   6 C    3.914 --   104 C    1.367   109 N    1.201   106 C    1.179
   106   6 C    3.959 --   107 C    1.640   105 C    1.179   118 H    0.975
   107   6 C    3.959 --   106 C    1.640   108 C    1.187   119 H    0.973
   108   6 C    3.904 --    86 C    1.262   109 N    1.245   107 C    1.187
   109   7 N    3.404 --   108 C    1.245   105 C    1.201    85 Ni   0.660
   110   1 H    1.002 --    88 C    0.973
   111   1 H    0.997 --    89 C    0.975
   112   1 H    1.000 --    92 C    0.970
   113   1 H    0.997 --    94 C    0.975
   114   1 H    1.002 --    95 C    0.973
   115   1 H    1.002 --   100 C    0.973
   116   1 H    0.997 --   101 C    0.975
   117   1 H    1.000 --   104 C    0.970
   118   1 H    0.997 --   106 C    0.975
   119   1 H    1.002 --   107 C    0.973
 ---------------------------------------------------------------------------

           -------------------------------------------------
          | TOTAL ENERGY             -219.889089487166 Eh   |
          | GRADIENT NORM               0.000616310983 Eh/α |
          | HOMO-LUMO GAP               1.118113111417 eV   |
           -------------------------------------------------

 * finished run on 2022/07/30 at 02:11:44.388
