   * xtb version 6.5.1 (b24c23e) compiled by 'conda@728c89f4b128' on 2022-07-12
          program call               : xtb Ni_Ph_C8_3.xyz --gfn 1 --opt -T 48

   ID    Z sym.   atoms
    1   28 Ni     1, 57, 129
    2    6 C      2-6, 8-11, 13-29, 32-37, 58-62, 64-67, 69-85, 88-93,
                  113-128, 130-134, 136-139, 141-157, 160-165
    3    7 N      7, 12, 30, 31, 63, 68, 86, 87, 135, 140, 158, 159
    4    1 H      38-56, 94-112, 166-183

          :  Hamiltonian                  GFN1-xTB          :
 * total energy  :  -316.2416368 Eh     change        0.1725255E-08 Eh
 * total energy  :  -316.6526741 Eh     change       -0.4110373E+00 Eh
 * total energy  :  -316.7814062 Eh     change       -0.1287321E+00 Eh
 * total energy  :  -316.8423226 Eh     change       -0.6091638E-01 Eh
 * total energy  :  -316.8901893 Eh     change       -0.4786664E-01 Eh
 * total energy  :  -316.9438210 Eh     change       -0.5363174E-01 Eh
 * total energy  :  -316.9997315 Eh     change       -0.5591053E-01 Eh
 * total energy  :  -317.0530701 Eh     change       -0.5333854E-01 Eh
 * total energy  :  -317.0815248 Eh     change       -0.2845476E-01 Eh
 * total energy  :  -317.0768192 Eh     change        0.4705629E-02 Eh
 * total energy  :  -317.2526458 Eh     change       -0.1905417E-04 Eh
 * total energy  :  -317.2526666 Eh     change       -0.2079414E-04 Eh
 * total energy  :  -317.2526896 Eh     change       -0.2299242E-04 Eh
 * total energy  :  -317.2527146 Eh     change       -0.2507132E-04 Eh
 * total energy  :  -317.2527411 Eh     change       -0.2644715E-04 Eh
 * total energy  :  -317.2527687 Eh     change       -0.2757821E-04 Eh
 * total energy  :  -317.2527967 Eh     change       -0.2803405E-04 Eh
 * total energy  :  -317.2528249 Eh     change       -0.2823678E-04 Eh
 * total energy  :  -317.2528286 Eh     change       -0.3687797E-05 Eh
   *** GEOMETRY OPTIMIZATION CONVERGED AFTER 94 ITERATIONS ***

 final structure:
================
183
 xtb: 6.5.1 (b24c23e)
Ni          23.73690457834195       -0.01528065992720       -0.00149495220833
C           20.33967882342568       -0.03584979547571        0.04930158737986
C           20.99118263909819       -1.24374211459635       -0.08472976806937
C           20.30875045898884       -2.49728949093601       -0.18671073198597
C           21.26346529059477       -3.45400195994592       -0.25286314774342
C           22.52902259073515       -2.78246677537947       -0.19891438968904
N           22.35159511918907       -1.42502176605645       -0.09914112090676
C           23.75044653387435       -3.44258604725513       -0.18677952609805
C           24.96490134366440       -2.77683774138977       -0.10113598449696
C           26.23242125578862       -3.44211133929429       -0.11112158507680
C           27.18126571553570       -2.47734233138866       -0.05937778001567
N           25.13749490951191       -1.41122724200725       -0.04984755399677
C           26.49239393017991       -1.22661457005457       -0.02854077936204
C           27.15517874404335        0.00389537828697       -0.02203167119442
C           26.47882425215789        1.22699621167679       -0.01679347604915
C           27.15209789214118        2.48610379446401       -0.04944747141490
C           26.19260971827703        3.44081934652818       -0.00389651983220
C           24.93533283277528        2.76027887515261        0.06854850975897
C           23.71482193235634        3.41337479892899        0.16565927022106
C           23.70443988789091        4.89555786083199        0.23722795847092
C           23.11195447965330        5.64728961091974       -0.77781045339600
C           23.10328495404208        7.03244160090638       -0.70926200880705
C           23.68000871923761        7.68143369178409        0.37395537841895
C           24.26899051960164        6.93968719857697        1.38887311918330
C           24.28447509523913        5.55455945595302        1.32153587061178
C           22.50178025912660        2.73865894124926        0.20297979571103
C           21.23335975779319        3.39109850768177        0.34721246800307
C           20.28844619915717        2.42293042806012        0.31276910776255
C           20.98056523568739        1.18033305807245        0.15665840838723
N           22.33773193403739        1.37929306586088        0.10823142177151
N           25.12287340857780        1.39612361541750        0.03688793039983
C           23.75669221141797       -4.92520075066281       -0.26030787801979
C           23.30422911722464       -5.57824884014466       -1.40690483206675
C           23.31226595538213       -6.96366275376300       -1.47239131661627
C           23.76696917601826       -7.71100823840760       -0.39449846185988
C           24.21634038966736       -7.06755864696885        0.75057904234430
C           24.21387965117021       -5.68235183031008        0.81854210447250
H           19.25617459836276       -0.04311950047546        0.07451235716008
H           19.23627295024372       -2.60991474279364       -0.19571614256945
H           21.13592380758262       -4.52215006251824       -0.32007072663692
H           26.36824676439118       -4.50987133983603       -0.16354238297993
H           28.25375349237443       -2.58599092742213       -0.05285507137918
H           28.22184841483802        2.60703180738494       -0.10535527756801
H           26.31412388173432        4.51143840382986       -0.02356611830442
H           22.67028390228498        5.14153791573145       -1.62923302929469
H           22.64441209056219        7.60754745012436       -1.50583792330661
H           23.67035151210194        8.76418399100768        0.42718002376924
H           24.71821782578196        7.44196134034734        2.23843203000553
H           24.73518048141521        4.97564640479647        2.11994427675174
H           21.09804799062097        4.45378386293780        0.46615711263520
H           19.21705338334517        2.52014336531479        0.38788915147255
H           22.95916978133898       -4.99512993675667       -2.25346160335327
H           22.96280537118887       -7.46171591441115       -2.36998825491485
H           23.77094302018265       -8.79384859477674       -0.44667460784330
H           24.56959328981747       -7.64692546037471        1.59638463991756
H           24.55483355057069       -5.18063986169435        1.71730952987643
Ni          60.90056680791800        0.04868704734736        0.02393678202596
C           64.29828690077949        0.05844100623343        0.07432576453574
C           63.64957929485437        1.27247158948930       -0.00801713728424
C           64.33479524506571        2.52760220532321       -0.06050601270075
C           63.38218885717148        3.48814186280994       -0.09295767853435
C           62.11522042173619        2.81770472170050       -0.06529985969637
N           62.28956241046038        1.45709941020509       -0.01716517616935
C           60.89566714307451        3.48000367796499       -0.02660576740204
C           59.67965316377101        2.81520524642797        0.03946741311622
C           58.41424359544697        3.48404753687457        0.06369972922010
C           57.46277558468918        2.52065234234620        0.08456971429010
N           59.50326088058406        1.44914282003515        0.03959439186282
C           58.14797008560086        1.26765858445136        0.06216771831833
C           57.48172029820643        0.03964721938818        0.02261615307220
C           58.15480726016638       -1.18434425457716       -0.02689153807242
C           57.47779855046434       -2.43924458177938       -0.10908272555596
C           58.43500514239140       -3.39725840438687       -0.11571680173984
C           59.69473142643749       -2.72355251098714       -0.02491662753925
C           60.91411850739335       -3.38333919738688        0.02951393058541
C           60.92090613484586       -4.86748469184066        0.02521238774557
C           61.49151115263962       -5.56677980797599       -1.03855928370846
C           61.49492372385293       -6.95365617910323       -1.04300008536160
C           60.93547665015291       -7.65645898501311        0.01542181290156
C           60.36936037240444       -6.96693675750125        1.07902244510207
C           60.35851221399598       -5.58010839036235        1.08448218725567
C           62.12923226183323       -2.71461480900269        0.09272874500512
C           63.39609791050825       -3.37699829538343        0.20004833734448
C           64.34345188069932       -2.41070209730044        0.21522957553620
C           63.65443095053698       -1.15993297611964        0.12343177298495
N           62.29670485756360       -1.35270038309895        0.06630455979128
N           59.51069817470111       -1.35891468915369        0.00776678480952
C           60.89471760384971        4.96455108560269       -0.04660568074352
C           61.33399332345655        5.65581440041985       -1.17570687866176
C           61.33272353821034        7.04270211638951       -1.19146904557823
C           60.89881280009412        7.75310079907824       -0.08053980953207
C           60.46282814976723        7.07129506376231        1.04736319639432
C           60.45776728481859        5.68450500157104        1.06540520518482
H           65.38177765696203        0.06208272417400        0.10071343569957
H           65.40752271449051        2.63815459061009       -0.06366111468111
H           63.51158238159243        4.55783817272752       -0.12065298610202
H           58.28189146168118        4.55351491341521        0.05430796328641
H           56.39066555782379        2.63182068600060        0.10283646447767
H           56.40725668488081       -2.55519076348611       -0.15994074197942
H           58.31054896180733       -4.46568938865987       -0.18163183830238
H           61.92013376969541       -5.01839673859892       -1.87002702466632
H           61.93592739743627       -7.48784796856287       -1.87727397739378
H           60.94080454996512       -8.74054250299184        0.01144230847361
H           59.93412274055839       -7.51152387625801        1.90958236081166
H           59.92503357358542       -5.04212620797308        1.92018894980703
H           63.52832149992710       -4.44488321608794        0.26284084711908
H           65.41468772232953       -2.51434225170695        0.28378065898620
H           61.66396989900319        5.10147014301096       -2.04723085235704
H           61.67153166734937        7.57090286476377       -2.07581310203116
H           60.90080585771145        8.83712616104877       -0.09358124108598
H           60.12617138868534        7.62177888207503        1.91882845266097
H           60.12692112942566        5.15246165160035        1.95038634404573
C           28.56001866195122        0.01129017024137       -0.02462595105937
C           29.78437489371761        0.01387638012631       -0.02000004613517
C           31.12742590642986        0.02051767799591       -0.00826308737613
C           32.35791386162207        0.02918566692294        0.00049010414013
C           33.69608339892964        0.03205209742074        0.01497754700403
C           34.92666861545340        0.03849333243345        0.02604208254654
C           36.26953348835231        0.04250121453740        0.03614191418050
C           37.49408801603155        0.04511668897861        0.04447352267056
C           47.14241282065105       -0.00187692892028        0.01135351430244
C           48.36697482227260       -0.00321859945640        0.01246588764102
C           49.70991114531835       -0.00119208746575        0.01349972052144
C           50.94059454660938        0.00343988185375        0.01669890323370
C           52.27886176014934        0.01052724428018        0.01929345854459
C           53.50939534045234        0.01907845714494        0.02086350598460
C           54.85251035567720        0.02798919144977        0.02077169753067
C           56.07683787434347        0.03519122113934        0.02076995510713
Ni          42.31822656046740        0.02302752051080        0.02946341800455
C           38.89798636250468        0.04051362395973        0.04604540174072
C           39.56561996489509       -1.18219271620479        0.16802484577081
C           38.88846882383764       -2.42830445075018        0.33391907518911
C           39.83935829725652       -3.39333880410199        0.30998415964803
C           41.09380557528895       -2.73185002168380        0.12057066838222
N           40.91694842789889       -1.36736511016012        0.07090515661626
C           42.30004453409675       -3.39863828982314       -0.04249982860832
C           43.51375692551480       -2.73912021990768       -0.17701186482417
C           44.76128392054146       -3.40565330870155       -0.39258556609341
C           45.72255199996442       -2.45072459233425       -0.37528843995597
N           43.70522179382841       -1.37993855953729       -0.07001679712242
C           45.05857080955383       -1.20539398032709       -0.15831192069210
C           45.73850226104832        0.00435033936371        0.01356964857963
C           45.07240313798544        1.22138500959285        0.18881016690820
C           45.75190232079385        2.45962311660479        0.39791251185225
C           44.80141626933604        3.42499201496323        0.42288709317913
C           43.54451409899685        2.77209303329419        0.21997715170098
C           42.33631107164334        3.44504420694109        0.10061472015097
C           42.34542843688629        4.92818398047463        0.13312635599966
C           41.69562422093893        5.61560441958038        1.15862299332928
C           41.71128172455612        7.00193111590425        1.19139649768128
C           42.36798329495628        7.71632034390427        0.19865317641601
C           43.01275829621601        7.03886848601433       -0.82724962913251
C           43.00588835310963        5.65246754835365       -0.85971237548469
C           41.12071895851602        2.79114210651453       -0.04610725977395
C           39.87079944103464        3.46537582169160       -0.22029532537088
C           38.91000355410734        2.50995210174905       -0.23482910443477
C           39.57634264929052        1.25691559945289       -0.07820885806610
N           40.93048029564109        1.42853476321598        0.00477138799906
N           43.72023249958891        1.41078029305351        0.11249099295029
C           42.29079766963250       -4.88215141114657       -0.07273050806274
C           41.63367280223009       -5.56325603465924       -1.09759566151202
C           41.62744740661855       -6.94980728767863       -1.12438891766570
C           42.26862454522461       -7.67012837738521       -0.12584194026243
C           42.92137177816880       -6.99861382468754        0.89888104586243
C           42.93727142961901       -5.61212200830961        0.92486167694421
H           37.82218635011860       -2.53483461656720        0.45144939229439
H           39.71374624895712       -4.45876394478317        0.41278454694353
H           44.87541421692578       -4.46721270327427       -0.53949809899381
H           46.78789305569871       -2.56358690752497       -0.49560913627556
H           46.81944632639555        2.56130162980043        0.50801176210471
H           44.92931332585421        4.48516129987518        0.56816611300658
H           41.19107989818175        5.05792923736625        1.93973718193628
H           41.20900615681138        7.52660165368112        1.99650924993186
H           42.37740254857086        8.80006097682517        0.22455125452547
H           43.52402899461726        7.59262815793534       -1.60682533319842
H           43.50183391048910        5.12407905375556       -1.66627585188845
H           39.75440098014938        4.53205085596840       -0.32091957147369
H           37.84346461251636        2.62730110079777       -0.33917759845971
H           41.13965678404364       -5.00086014210693       -1.88201594058479
H           41.11955266995209       -7.47001449706083       -1.92886390991457
H           42.25942731624209       -8.75399151745722       -0.14610738261544
H           43.42038359125992       -7.55704049190945        1.68301987529564
H           43.43966819153043       -5.08785254832558        1.73009261951243

          :  Hamiltonian                  GFN1-xTB          :
         :: total energy            -317.252828636003 Eh    ::
         :: gradient norm              0.000629390163 Eh/a0 ::
         :: HOMO-LUMO gap              1.031807155299 eV    ::
         :: SCC energy              -322.731153146936 Eh    ::
         :: repulsion energy           5.641999554150 Eh    ::

    * Orbital Energies and Occupations

         #    Occupation            Energy/Eh            Energy/eV
      -------------------------------------------------------------
         1        2.0000           -0.7829520             -21.3052
       ...           ...                  ...                  ...
       285        2.0000           -0.3988517             -10.8533
       286        2.0000           -0.3988481             -10.8532
       287        2.0000           -0.3982152             -10.8360
       288        2.0000           -0.3980997             -10.8328
       289        2.0000           -0.3980996             -10.8328
       290        2.0000           -0.3980507             -10.8315
       291        2.0000           -0.3970606             -10.8046
       292        2.0000           -0.3970590             -10.8045
       293        2.0000           -0.3970202             -10.8035
       294        2.0000           -0.3970172             -10.8034
       295        2.0000           -0.3944601             -10.7338
       296        2.0000           -0.3889795             -10.5847
       297        2.0000           -0.3825312             -10.4092 (HOMO)
       298                         -0.3446130              -9.3774 (LUMO)
       299                         -0.3364127              -9.1543
       300                         -0.3310270              -9.0077
       301                         -0.3307711              -9.0007
       302                         -0.3307605              -9.0005
       303                         -0.3306411              -8.9972
       304                         -0.3305869              -8.9957
       305                         -0.3294613              -8.9651
       306                         -0.3294463              -8.9647
       307                         -0.3098055              -8.4302
       308                         -0.3016086              -8.2072
       ...                                ...                  ...
       635                          1.6045291              43.6615
      -------------------------------------------------------------
                  HL-Gap            0.0379182 Eh            1.0318 eV

Wiberg/Mayer (AO) data.
largest (>0.10) Wiberg bond orders for each atom

     #   Z sym  total        # sym  WBO       # sym  WBO       # sym  WBO
 ---------------------------------------------------------------------------
     1  28 Ni   3.006 --     7 N    0.664    30 N    0.664    12 N    0.661
                            31 N    0.661
     2   6 C    3.933 --     3 C    1.364    29 C    1.364    38 H    0.970
     3   6 C    3.924 --     2 C    1.364     7 N    1.214     4 C    1.175
     4   6 C    3.960 --     5 C    1.649     3 C    1.175    39 H    0.975
     5   6 C    3.963 --     4 C    1.649     6 C    1.177    40 H    0.973
     6   6 C    3.919 --     8 C    1.323     7 N    1.222     5 C    1.177
     7   7 N    3.402 --     6 C    1.222     3 C    1.214     1 Ni   0.664
     8   6 C    3.939 --     9 C    1.332     6 C    1.323    32 C    1.021
     9   6 C    3.915 --     8 C    1.332    12 N    1.204    10 C    1.183
    10   6 C    3.959 --    11 C    1.637     9 C    1.183    41 H    0.973
    11   6 C    3.961 --    10 C    1.637    13 C    1.191    42 H    0.973
    12   7 N    3.406 --    13 C    1.241     9 C    1.204     1 Ni   0.661
    13   6 C    3.903 --    14 C    1.262    12 N    1.241    11 C    1.191
    14   6 C    3.943 --    13 C    1.262    15 C    1.261   113 C    1.186
    15   6 C    3.903 --    14 C    1.261    31 N    1.241    16 C    1.191
    16   6 C    3.961 --    17 C    1.636    15 C    1.191    43 H    0.973
    17   6 C    3.959 --    16 C    1.636    18 C    1.184    44 H    0.973
    18   6 C    3.915 --    19 C    1.331    31 N    1.205    17 C    1.184
    19   6 C    3.939 --    18 C    1.331    26 C    1.323    20 C    1.023
    20   6 C    3.988 --    21 C    1.397    25 C    1.397    19 C    1.023
                            23 C    0.108
    21   6 C    3.988 --    22 C    1.447    20 C    1.397    45 H    0.973
                            24 C    0.110
    22   6 C    3.995 --    21 C    1.447    23 C    1.438    46 H    0.973
                            25 C    0.110
    23   6 C    3.991 --    22 C    1.438    24 C    1.438    47 H    0.974
                            20 C    0.108
    24   6 C    3.995 --    25 C    1.447    23 C    1.438    48 H    0.973
                            21 C    0.110
    25   6 C    3.989 --    24 C    1.447    20 C    1.397    49 H    0.973
                            22 C    0.110
    26   6 C    3.919 --    19 C    1.323    30 N    1.222    27 C    1.177
    27   6 C    3.963 --    28 C    1.649    26 C    1.177    50 H    0.973
    28   6 C    3.959 --    27 C    1.649    29 C    1.175    51 H    0.975
    29   6 C    3.924 --     2 C    1.364    30 N    1.214    28 C    1.175
    30   7 N    3.402 --    26 C    1.222    29 C    1.214     1 Ni   0.664
    31   7 N    3.406 --    15 C    1.241    18 C    1.205     1 Ni   0.661
    32   6 C    3.988 --    33 C    1.397    37 C    1.397     8 C    1.021
                            35 C    0.109
    33   6 C    3.989 --    34 C    1.446    32 C    1.397    52 H    0.973
                            36 C    0.110
    34   6 C    3.995 --    33 C    1.446    35 C    1.438    53 H    0.973
                            37 C    0.110
    35   6 C    3.991 --    34 C    1.438    36 C    1.438    54 H    0.974
                            32 C    0.109
    36   6 C    3.995 --    37 C    1.447    35 C    1.438    55 H    0.973
                            33 C    0.110
    37   6 C    3.989 --    36 C    1.447    32 C    1.397    56 H    0.973
                            34 C    0.110
    38   1 H    1.000 --     2 C    0.970
    39   1 H    0.998 --     4 C    0.975
    40   1 H    1.005 --     5 C    0.973
    41   1 H    1.005 --    10 C    0.973
    42   1 H    1.002 --    11 C    0.973
    43   1 H    1.002 --    16 C    0.973
    44   1 H    1.005 --    17 C    0.973
    45   1 H    1.004 --    21 C    0.973
    46   1 H    1.003 --    22 C    0.973
    47   1 H    1.003 --    23 C    0.974
    48   1 H    1.003 --    24 C    0.973
    49   1 H    1.004 --    25 C    0.973
    50   1 H    1.005 --    27 C    0.973
    51   1 H    0.998 --    28 C    0.975
    52   1 H    1.004 --    33 C    0.973
    53   1 H    1.003 --    34 C    0.973
    54   1 H    1.003 --    35 C    0.974
    55   1 H    1.003 --    36 C    0.973
    56   1 H    1.004 --    37 C    0.973
    57  28 Ni   3.006 --    63 N    0.664    86 N    0.664    68 N    0.661
                            87 N    0.661
    58   6 C    3.933 --    85 C    1.364    59 C    1.364    94 H    0.970
    59   6 C    3.924 --    58 C    1.364    63 N    1.214    60 C    1.175
    60   6 C    3.960 --    61 C    1.649    59 C    1.175    95 H    0.975
    61   6 C    3.963 --    60 C    1.649    62 C    1.177    96 H    0.973
    62   6 C    3.919 --    64 C    1.324    63 N    1.221    61 C    1.177
    63   7 N    3.402 --    62 C    1.221    59 C    1.214    57 Ni   0.664
    64   6 C    3.939 --    65 C    1.332    62 C    1.324    88 C    1.020
    65   6 C    3.915 --    64 C    1.332    68 N    1.204    66 C    1.183
    66   6 C    3.959 --    67 C    1.637    65 C    1.183    97 H    0.973
    67   6 C    3.961 --    66 C    1.637    69 C    1.191    98 H    0.973
    68   7 N    3.406 --    69 C    1.241    65 C    1.204    57 Ni   0.661
    69   6 C    3.903 --    70 C    1.262    68 N    1.241    67 C    1.191
    70   6 C    3.943 --    69 C    1.262    71 C    1.261   128 C    1.186
    71   6 C    3.903 --    70 C    1.261    87 N    1.241    72 C    1.191
    72   6 C    3.961 --    73 C    1.636    71 C    1.191    99 H    0.973
    73   6 C    3.959 --    72 C    1.636    74 C    1.184   100 H    0.973
    74   6 C    3.915 --    75 C    1.331    87 N    1.204    73 C    1.184
    75   6 C    3.939 --    74 C    1.331    82 C    1.323    76 C    1.022
    76   6 C    3.988 --    77 C    1.397    81 C    1.397    75 C    1.022
                            79 C    0.108
    77   6 C    3.989 --    78 C    1.447    76 C    1.397   101 H    0.973
                            80 C    0.110
    78   6 C    3.995 --    77 C    1.447    79 C    1.438   102 H    0.973
                            81 C    0.110
    79   6 C    3.991 --    80 C    1.438    78 C    1.438   103 H    0.974
                            76 C    0.108
    80   6 C    3.995 --    81 C    1.447    79 C    1.438   104 H    0.973
                            77 C    0.110
    81   6 C    3.989 --    80 C    1.447    76 C    1.397   105 H    0.973
                            78 C    0.110
    82   6 C    3.919 --    75 C    1.323    86 N    1.222    83 C    1.177
    83   6 C    3.963 --    84 C    1.649    82 C    1.177   106 H    0.973
    84   6 C    3.959 --    83 C    1.649    85 C    1.175   107 H    0.975
    85   6 C    3.924 --    58 C    1.364    86 N    1.214    84 C    1.175
    86   7 N    3.402 --    82 C    1.222    85 C    1.214    57 Ni   0.664
    87   7 N    3.406 --    71 C    1.241    74 C    1.204    57 Ni   0.661
    88   6 C    3.988 --    89 C    1.398    93 C    1.398    64 C    1.020
                            91 C    0.109
    89   6 C    3.989 --    90 C    1.446    88 C    1.398   108 H    0.973
                            92 C    0.110
    90   6 C    3.995 --    89 C    1.446    91 C    1.438   109 H    0.973
                            93 C    0.110
    91   6 C    3.991 --    90 C    1.438    92 C    1.438   110 H    0.974
                            88 C    0.109
    92   6 C    3.995 --    93 C    1.446    91 C    1.438   111 H    0.973
                            89 C    0.110
    93   6 C    3.989 --    92 C    1.446    88 C    1.398   112 H    0.973
                            90 C    0.110
    94   1 H    1.000 --    58 C    0.970
    95   1 H    0.998 --    60 C    0.975
    96   1 H    1.005 --    61 C    0.973
    97   1 H    1.005 --    66 C    0.973
    98   1 H    1.002 --    67 C    0.973
    99   1 H    1.002 --    72 C    0.973
   100   1 H    1.005 --    73 C    0.973
   101   1 H    1.004 --    77 C    0.973
   102   1 H    1.003 --    78 C    0.973
   103   1 H    1.003 --    79 C    0.974
   104   1 H    1.003 --    80 C    0.973
   105   1 H    1.004 --    81 C    0.973
   106   1 H    1.005 --    83 C    0.973
   107   1 H    0.998 --    84 C    0.975
   108   1 H    1.004 --    89 C    0.973
   109   1 H    1.003 --    90 C    0.973
   110   1 H    1.003 --    91 C    0.974
   111   1 H    1.003 --    92 C    0.973
   112   1 H    1.004 --    93 C    0.973
   113   6 C    3.877 --   114 C    2.444    14 C    1.186   116 C    0.187
   114   6 C    3.938 --   113 C    2.444   115 C    1.342
   115   6 C    3.893 --   116 C    2.339   114 C    1.342   118 C    0.183
   116   6 C    3.927 --   115 C    2.339   117 C    1.368   113 C    0.187
   117   6 C    3.926 --   118 C    2.338   116 C    1.368   120 C    0.187
   118   6 C    3.894 --   117 C    2.338   119 C    1.343   115 C    0.183
   119   6 C    3.935 --   120 C    2.441   118 C    1.343
   120   6 C    3.878 --   119 C    2.441   130 C    1.189   117 C    0.187
   121   6 C    3.878 --   122 C    2.441   142 C    1.189   124 C    0.187
   122   6 C    3.935 --   121 C    2.441   123 C    1.343
   123   6 C    3.894 --   124 C    2.338   122 C    1.343   126 C    0.183
   124   6 C    3.926 --   123 C    2.338   125 C    1.368   121 C    0.187
   125   6 C    3.927 --   126 C    2.339   124 C    1.368   128 C    0.187
   126   6 C    3.893 --   125 C    2.339   127 C    1.342   123 C    0.183
   127   6 C    3.938 --   128 C    2.444   126 C    1.342
   128   6 C    3.877 --   127 C    2.444    70 C    1.186   125 C    0.187
   129  28 Ni   3.000 --   159 N    0.660   135 N    0.660   158 N    0.660
                           140 N    0.660
   130   6 C    3.933 --   157 C    1.259   131 C    1.259   120 C    1.189
   131   6 C    3.903 --   130 C    1.259   135 N    1.241   132 C    1.193
   132   6 C    3.959 --   133 C    1.633   131 C    1.193   166 H    0.973
   133   6 C    3.960 --   132 C    1.633   134 C    1.186   167 H    0.973
   134   6 C    3.913 --   136 C    1.327   135 N    1.204   133 C    1.186
   135   7 N    3.400 --   131 C    1.241   134 C    1.204   129 Ni   0.660
   136   6 C    3.934 --   134 C    1.327   137 C    1.327   160 C    1.023
   137   6 C    3.913 --   136 C    1.327   140 N    1.204   138 C    1.186
   138   6 C    3.960 --   139 C    1.633   137 C    1.186   168 H    0.973
   139   6 C    3.959 --   138 C    1.633   141 C    1.193   169 H    0.973
   140   7 N    3.399 --   141 C    1.241   137 C    1.204   129 Ni   0.660
   141   6 C    3.903 --   142 C    1.259   140 N    1.241   139 C    1.193
   142   6 C    3.933 --   141 C    1.259   143 C    1.259   121 C    1.189
   143   6 C    3.903 --   142 C    1.259   159 N    1.241   144 C    1.193
   144   6 C    3.959 --   145 C    1.633   143 C    1.193   170 H    0.973
   145   6 C    3.960 --   144 C    1.633   146 C    1.186   171 H    0.973
   146   6 C    3.913 --   147 C    1.326   159 N    1.204   145 C    1.186
   147   6 C    3.935 --   146 C    1.326   154 C    1.326   148 C    1.024
   148   6 C    3.988 --   149 C    1.396   153 C    1.396   147 C    1.024
                           151 C    0.108
   149   6 C    3.988 --   150 C    1.447   148 C    1.396   172 H    0.973
                           152 C    0.110
   150   6 C    3.995 --   149 C    1.447   151 C    1.438   173 H    0.973
                           153 C    0.110
   151   6 C    3.991 --   150 C    1.438   152 C    1.438   174 H    0.974
                           148 C    0.108
   152   6 C    3.995 --   153 C    1.447   151 C    1.438   175 H    0.973
                           149 C    0.110
   153   6 C    3.988 --   152 C    1.447   148 C    1.396   176 H    0.973
                           150 C    0.110
   154   6 C    3.913 --   147 C    1.326   158 N    1.204   155 C    1.186
   155   6 C    3.960 --   156 C    1.633   154 C    1.186   177 H    0.973
   156   6 C    3.959 --   155 C    1.633   157 C    1.193   178 H    0.973
   157   6 C    3.903 --   130 C    1.259   158 N    1.241   156 C    1.193
   158   7 N    3.400 --   157 C    1.241   154 C    1.204   129 Ni   0.660
   159   7 N    3.400 --   143 C    1.241   146 C    1.204   129 Ni   0.660
   160   6 C    3.988 --   165 C    1.397   161 C    1.397   136 C    1.023
                           163 C    0.108
   161   6 C    3.989 --   162 C    1.447   160 C    1.397   179 H    0.973
                           164 C    0.110
   162   6 C    3.995 --   161 C    1.447   163 C    1.438   180 H    0.973
                           165 C    0.110
   163   6 C    3.991 --   164 C    1.438   162 C    1.438   181 H    0.974
                           160 C    0.108
   164   6 C    3.995 --   165 C    1.447   163 C    1.438   182 H    0.973
                           161 C    0.110
   165   6 C    3.989 --   164 C    1.447   160 C    1.397   183 H    0.973
                           162 C    0.110
   166   1 H    1.002 --   132 C    0.973
   167   1 H    1.004 --   133 C    0.973
   168   1 H    1.004 --   138 C    0.973
   169   1 H    1.002 --   139 C    0.973
   170   1 H    1.002 --   144 C    0.973
   171   1 H    1.004 --   145 C    0.973
   172   1 H    1.004 --   149 C    0.973
   173   1 H    1.002 --   150 C    0.973
   174   1 H    1.003 --   151 C    0.974
   175   1 H    1.002 --   152 C    0.973
   176   1 H    1.004 --   153 C    0.973
   177   1 H    1.004 --   155 C    0.973
   178   1 H    1.002 --   156 C    0.973
   179   1 H    1.004 --   161 C    0.973
   180   1 H    1.002 --   162 C    0.973
   181   1 H    1.003 --   163 C    0.974
   182   1 H    1.002 --   164 C    0.973
   183   1 H    1.004 --   165 C    0.973
 ---------------------------------------------------------------------------

           -------------------------------------------------
          | TOTAL ENERGY             -317.252828636003 Eh   |
          | GRADIENT NORM               0.000629390163 Eh/α |
          | HOMO-LUMO GAP               1.031807155299 eV   |
           -------------------------------------------------

 * finished run on 2022/07/30 at 05:58:17.562
