   * xtb version 6.5.1 (b24c23e) compiled by 'conda@728c89f4b128' on 2022-07-12
          program call               : xtb Ph_C2_3.xyz --gfn 1 --opt -T 48

   ID    Z sym.   atoms
    1    6 C      1-5, 7-10, 12-28, 31-36, 58-62, 64-67, 69-85, 88-93,
                  115-123, 125-128, 130-146, 149-154
    2    7 N      6, 11, 29, 30, 63, 68, 86, 87, 124, 129, 147, 148
    3    1 H      37-57, 94-114, 155-174

          :  Hamiltonian                  GFN1-xTB          :
 * total energy  :  -282.2464856 Eh     change       -0.5544791E-08 Eh
 * total energy  :  -282.5290276 Eh     change       -0.2825420E+00 Eh
 * total energy  :  -282.6668369 Eh     change       -0.1378093E+00 Eh
 * total energy  :  -282.7356825 Eh     change       -0.6884563E-01 Eh
 * total energy  :  -282.7692018 Eh     change       -0.3351929E-01 Eh
 * total energy  :  -282.7940322 Eh     change       -0.2483048E-01 Eh
 * total energy  :  -282.8145007 Eh     change       -0.2046850E-01 Eh
 * total energy  :  -282.8311731 Eh     change       -0.1667230E-01 Eh
 * total energy  :  -282.8446076 Eh     change       -0.1343459E-01 Eh
 * total energy  :  -282.8550734 Eh     change       -0.1046580E-01 Eh
 * total energy  :  -282.8989654 Eh     change       -0.1570067E-04 Eh
 * total energy  :  -282.8989822 Eh     change       -0.1683968E-04 Eh
 * total energy  :  -282.8990018 Eh     change       -0.1962328E-04 Eh
 * total energy  :  -282.8990268 Eh     change       -0.2494519E-04 Eh
 * total energy  :  -282.8990589 Eh     change       -0.3213325E-04 Eh
 * total energy  :  -282.8990971 Eh     change       -0.3821130E-04 Eh
 * total energy  :  -282.8991360 Eh     change       -0.3889164E-04 Eh
 * total energy  :  -282.8991693 Eh     change       -0.3329165E-04 Eh
 * total energy  :  -282.8991723 Eh     change       -0.2943762E-05 Eh
   *** GEOMETRY OPTIMIZATION CONVERGED AFTER 122 ITERATIONS ***

 final structure:
================
174
 xtb: 6.5.1 (b24c23e)
C           27.80792413632746       -0.10696997372601        0.01833544625415
C           28.42060575054021       -1.26219491810763        0.48630286206573
C           27.77303781372747       -2.45064295919053        0.92680544805829
C           28.73824700053862       -3.34191753929014        1.30251219738820
C           30.00694124494300       -2.72291535996743        1.11344708030057
N           29.76428442080541       -1.47500691689524        0.61284484072965
C           31.27111776963000       -3.26817931616527        1.36197683153742
C           32.48493546757150       -2.61958232235521        1.12191510802543
C           33.78238652622069       -3.18366482187406        1.44817102601281
C           34.70116311159431       -2.26701822546327        1.08012605251628
N           32.63714266444246       -1.37868767904178        0.58362468894289
C           33.96443790448495       -1.14183336496859        0.53736909303863
C           34.59676064895618        0.02092607336561        0.05640490759417
C           33.96005912730107        1.17411988802197       -0.43663367984120
C           34.60165047558363        2.32555731538763       -0.96562835545567
C           33.63249703221967        3.20635913679511       -1.35908075707965
C           32.36717801020279        2.62257723074007       -1.07364123761316
C           31.10351073630163        3.16616797348292       -1.32776705077427
C           31.06703890338867        4.52086762934243       -1.93128501096709
C           30.48482723691643        4.71750910737128       -3.18448786893288
C           30.45502878263916        5.98160984085041       -3.75355319058388
C           31.00068980262068        7.06462084007231       -3.07770706188747
C           31.57895393652349        6.87790334147471       -1.82952712131741
C           31.61541276164784        5.61417175483136       -1.25936941799199
C           29.88902233936803        2.52618428785328       -1.06065151287069
C           28.58290494365664        3.13019114124898       -1.27372134339190
C           27.67091139851111        2.21291927294582       -0.89347560546004
C           28.41849075731209        1.05223291639239       -0.44253054478229
N           29.75041517260075        1.27981777755402       -0.54922685757657
N           32.61730888315478        1.39407647594365       -0.52161763255442
C           31.30608454990005       -4.64004918006874        1.92685819040346
C           30.72821519592250       -4.90989037613435        3.16809933603182
C           30.76308464419175       -6.19273259351633        3.69389169897438
C           31.36932048445586       -7.22132323682659        2.98566191048574
C           31.94416578810488       -6.96137303118508        1.74898512886103
C           31.91573434284478       -5.67896654770653        1.22222034002589
H           26.72265152636243       -0.12178046172278        0.01287935440528
H           26.70441511685081       -2.59454615229454        0.94262690785567
H           28.59100372850923       -4.34425932854232        1.67080318815520
H           30.48710367485474       -0.80758922853758        0.36520820860073
H           33.94565556076666       -4.14347478662990        1.91087068100490
H           35.77430903006996       -2.31876532187494        1.17043289985870
H           35.66970074300871        2.45083949694427       -1.04270041936688
H           33.77806673796605        4.17078136787109       -1.81770282150078
H           30.06983093687098        3.87042865544116       -3.71925603058649
H           30.00489044633305        6.12142414411105       -4.73015593109761
H           30.97522010856595        8.05268802669532       -3.52308965217894
H           32.00312876095370        7.72118036568787       -1.29574934082402
H           32.05496672120558        5.47344268746451       -0.27806123288575
H           28.41278000457513        4.12638867319132       -1.64933683034553
H           26.59466156118678        2.28728892991770       -0.89976827123388
H           31.89670687157848        0.73873809300961       -0.23716265230141
H           30.26671352931852       -4.10508314642196        3.72962258312242
H           30.31603758571548       -6.38951013537153        4.66207628318630
H           31.39418508009579       -8.22398828964997        3.39716175360313
H           32.41655827183735       -7.76193573900382        1.19056595766220
H           32.35435960308906       -5.48003536926586        0.25076986287271
C           56.32105854792397        0.01238927320852        0.00276815143100
C           55.73662619049939        1.07255849408145       -0.67789082834815
C           56.41193674465711        2.11002043406724       -1.38038676691097
C           55.46805357088159        2.94659494247033       -1.90603929009828
C           54.18528325135796        2.45532830913788       -1.52941051635462
N           54.39849490223956        1.31996198511864       -0.79976809445549
C           52.93430468187247        2.99953317545888       -1.83847777601207
C           51.70632291029702        2.45692336746672       -1.45141004052163
C           50.42511239285504        3.08605109243079       -1.71732725977491
C           49.48410816119110        2.27120426605278       -1.19729750950118
N           51.52308619838595        1.29440514678263       -0.76817608883125
C           50.19072189994048        1.14818487164970       -0.61195364096859
C           49.52896114839886        0.05770251397214       -0.01610950909145
C           50.13822732331883       -1.06611273804710        0.57100756357956
C           49.47087010114932       -2.18125615792301        1.14364701831749
C           50.41912174393939       -3.03806675770994        1.62988979703912
C           51.69686885771323       -2.46474220145833        1.38132832430191
C           52.94644396854859       -2.99482718800575        1.72053713800974
C           52.94888686854154       -4.28160383362003        2.45830456351866
C           53.56661897001277       -5.40766914498883        1.91193831184442
C           53.56535046586465       -6.61166154792817        2.59985955031914
C           52.95217976865553       -6.70583943565239        3.84187910079196
C           52.33809697302726       -5.58973277858251        4.39367318255051
C           52.33344603445725       -4.38502384711374        3.70679240748175
C           54.17577849315821       -2.39999737944118        1.41906718085541
C           55.46486152000524       -2.92949426924258        1.83643099347058
C           56.39901009932662       -2.08453517771321        1.35563279852934
C           55.68167330497458       -1.03541296451701        0.65267798288035
N           54.34540652081839       -1.25171616747420        0.72128519580775
N           51.47544407146805       -1.28089070658624        0.72880225632258
C           52.92884625531890        4.24721574125772       -2.64209397681952
C           53.52706756479961        5.41045264238234       -2.15633979101503
C           53.52186793094238        6.57105125964357       -2.91571422102811
C           52.92571199906035        6.58284410712934       -4.16931119001640
C           52.32967318966006        5.42903526315099       -4.66012071459929
C           52.32789799631741        4.26834160285531       -3.90156412638510
H           57.40630677074595        0.00619433445243        0.01771814724687
H           57.48353727031998        2.18948816216046       -1.47127732254143
H           55.63896901804546        3.82452532414640       -2.50772209517311
H           53.66023914789223        0.74316391783692       -0.41057337589574
H           50.28760498291580        4.02928557944159       -2.22076415503393
H           48.41321351070614        2.39614957322882       -1.19795182882608
H           48.40056874077786       -2.30595299305560        1.17460885800931
H           50.25107821048461       -3.98697915004054        2.11249800911038
H           54.03392362880742       -5.33965216882039        0.93584643302317
H           54.04411584684104       -7.48114622235050        2.16315095692527
H           52.95333503616071       -7.64741661558585        4.37920836768316
H           51.86127703108490       -5.65664458265750        5.36534118714660
H           51.86637880668315       -3.51089848105839        4.14696031075584
H           55.60940402915516       -3.81907068094582        2.42821140638981
H           57.47194139141851       -2.13544960040841        1.45612521786868
H           52.21057739585048       -0.65768128790970        0.41125003092706
H           53.98108284540153        5.40764836037225       -1.17155167418910
H           53.98484588736009        7.47085557938474       -2.52591155324786
H           52.92533098557966        7.49001270906132       -4.76290526355822
H           51.86482452212280        5.43219545928248       -5.63980891346361
H           51.87231022326085        3.36464186359968       -4.29079976039161
C           36.00717417396947        0.04245656369796        0.05796787120330
C           37.22352961045208        0.05353704961159        0.04779394128774
C           46.90147246441242        0.07558467130799        0.00064014883210
C           48.11789241857738        0.07245416352127       -0.00931756519163
C           38.63339024268818        0.05888577483359        0.04109848331602
C           39.25418729507325        1.29718733909163        0.28537557706423
C           38.60230249985367        2.52000686928501        0.59206966314052
C           39.56386372877400        3.47488904045913        0.77941664748618
C           40.83254749940630        2.86440569305985        0.58196737689487
N           40.59435126726379        1.54752209052578        0.29177575374030
C           42.09026253789501        3.47042324228450        0.68273264434475
C           43.31681896011829        2.82486524890431        0.51520834316659
C           44.59907175437859        3.50482251829786        0.55988555093193
C           45.54050739333376        2.55864390751714        0.36436404851013
N           43.49972592430414        1.49745919863640        0.27737460949854
C           44.83296261029487        1.30485113265417        0.19443985927385
C           45.49096770542665        0.07476124841876        0.00776016335019
C           44.86921759651504       -1.17434486142337       -0.17301259366057
C           45.52090733011827       -2.42128377516597       -0.35898734338837
C           44.55918980817157       -3.37736571057928       -0.53917844018194
C           43.29042748927514       -2.73945809003362       -0.47755012232743
C           42.03379421344479       -3.34081072582306       -0.61555417417985
C           42.02794534435238       -4.79480889676366       -0.91634128998104
C           42.59813675617119       -5.27215120566463       -2.09728885832800
C           42.58833708375215       -6.62929950868959       -2.38219357217248
C           42.01565248213153       -7.52556228708251       -1.49006664095936
C           41.44963908409134       -7.05867842819484       -0.31154032427693
C           41.45247538589934       -5.70164461353503       -0.02567312516011
C           40.80608523304040       -2.68679834261948       -0.50349711691294
C           39.52260933839968       -3.33561024119386       -0.70369600809733
C           38.58149911081026       -2.38817704361407       -0.51299424245851
C           39.29090946223999       -1.16105412402542       -0.20763431564057
N           40.62375590659723       -1.36850360708796       -0.21677760996361
N           43.52835804000670       -1.41170154852282       -0.24282840457351
C           42.10248251635175        4.91911657554459        1.00708463489990
C           41.51760139868634        5.84820999260906        0.14591803909247
C           41.52925106173677        7.19911506567242        0.45999133920402
C           42.11864225870555        7.63740711058521        1.63796836463413
C           42.70129298403974        6.71887403786490        2.50062937632735
C           42.69645192831515        5.36812611981762        2.18755935609392
H           37.53403825116295        2.64275953108522        0.66993148437642
H           39.41005496273490        4.50884601214464        1.04177035319155
H           41.31765241996499        0.85639646390239        0.12326505114747
H           44.73732954937650        4.56366563457760        0.70720198564360
H           46.61207453249718        2.67356579022706        0.33369078974758
H           46.58966638430892       -2.56172699699139       -0.35572809192792
H           44.71275921933911       -4.43273460476525       -0.69469964404688
H           43.03436971593114       -4.57220541040587       -2.80138374996852
H           43.02861664155434       -6.98819331473737       -3.30592605892970
H           42.01020977305561       -8.58643697841956       -1.71325608979931
H           41.00376100223669       -7.75515232378213        0.38986852973802
H           41.01995391711113       -5.33970600983956        0.90036775376889
H           39.38284945803447       -4.37129825236173       -0.96778279358502
H           37.50967042741532       -2.48276809903647       -0.58140774559645
H           42.80517161176338       -0.70767680050952       -0.13961995894220
H           41.06824929322595        5.50979083576444       -0.78117046591136
H           41.07643543749232        7.91305242014445       -0.21911738637897
H           42.12415507145067        8.69336953786247        1.88333483654435
H           43.16087745007886        7.05558546785435        3.42328046200200
H           43.14132971450933        4.65037505810256        2.86772609911204

          :  Hamiltonian                  GFN1-xTB          :
         :: total energy            -282.899172266308 Eh    ::
         :: gradient norm              0.000439685120 Eh/a0 ::
         :: HOMO-LUMO gap              0.874803374488 eV    ::
         :: SCC energy              -287.646078612083 Eh    ::
         :: repulsion energy           4.899935578061 Eh    ::

    * Orbital Energies and Occupations

         #    Occupation            Energy/Eh            Energy/eV
      -------------------------------------------------------------
         1        2.0000           -0.8032180             -21.8567
       ...           ...                  ...                  ...
       249        2.0000           -0.4171663             -11.3517
       250        2.0000           -0.4157151             -11.3122
       251        2.0000           -0.4152993             -11.3009
       252        2.0000           -0.4151230             -11.2961
       253        2.0000           -0.4137376             -11.2584
       254        2.0000           -0.4136331             -11.2555
       255        2.0000           -0.4135932             -11.2544
       256        2.0000           -0.3980253             -10.8308
       257        2.0000           -0.3974128             -10.8142
       258        2.0000           -0.3973620             -10.8128
       259        2.0000           -0.3894061             -10.5963
       260        2.0000           -0.3827173             -10.4143
       261        2.0000           -0.3743802             -10.1874 (HOMO)
       262                         -0.3422317              -9.3126 (LUMO)
       263                         -0.3322649              -9.0414
       264                         -0.3297138              -8.9720
       265                         -0.3295588              -8.9678
       266                         -0.3293711              -8.9626
       267                         -0.3231071              -8.7922
       268                         -0.2994205              -8.1476
       269                         -0.2928589              -7.9691
       270                         -0.2891258              -7.8675
       271                         -0.2646757              -7.2022
       272                         -0.2645976              -7.2001
       ...                                ...                  ...
       572                          1.3409988              36.4904
      -------------------------------------------------------------
                  HL-Gap            0.0321484 Eh            0.8748 eV

Wiberg/Mayer (AO) data.
largest (>0.10) Wiberg bond orders for each atom

     #   Z sym  total        # sym  WBO       # sym  WBO       # sym  WBO
 ---------------------------------------------------------------------------
     1   6 C    3.926 --    28 C    1.365     2 C    1.347    37 H    0.971
     2   6 C    3.903 --     1 C    1.347     3 C    1.229     6 N    1.170
     3   6 C    3.954 --     4 C    1.595     2 C    1.229    38 H    0.977
     4   6 C    3.959 --     3 C    1.595     5 C    1.234    39 H    0.974
     5   6 C    3.897 --     7 C    1.304     4 C    1.234     6 N    1.176
     6   7 N    3.469 --     5 C    1.176     2 C    1.170    40 H    0.873
     7   6 C    3.939 --     8 C    1.334     5 C    1.304    31 C    1.028
     8   6 C    3.916 --     7 C    1.334    11 N    1.288     9 C    1.125
     9   6 C    3.966 --    10 C    1.710     8 C    1.125    41 H    0.974
    10   6 C    3.965 --     9 C    1.710    12 C    1.128    42 H    0.972
    11   7 N    3.022 --    12 C    1.340     8 C    1.288
    12   6 C    3.915 --    11 N    1.340    13 C    1.262    10 C    1.128
    13   6 C    3.937 --    12 C    1.262    14 C    1.258   115 C    1.172
    14   6 C    3.891 --    13 C    1.258    15 C    1.248    30 N    1.187
    15   6 C    3.959 --    16 C    1.583    14 C    1.248    43 H    0.974
    16   6 C    3.955 --    15 C    1.583    17 C    1.241    44 H    0.974
    17   6 C    3.899 --    18 C    1.309    16 C    1.241    30 N    1.166
    18   6 C    3.926 --    25 C    1.322    17 C    1.309    19 C    1.029
    19   6 C    3.988 --    24 C    1.395    20 C    1.394    18 C    1.029
                            22 C    0.108
    20   6 C    3.987 --    21 C    1.448    19 C    1.394    45 H    0.973
                            23 C    0.110
    21   6 C    3.995 --    20 C    1.448    22 C    1.437    46 H    0.973
                            24 C    0.109
    22   6 C    3.989 --    23 C    1.438    21 C    1.437    47 H    0.974
                            19 C    0.108
    23   6 C    3.995 --    24 C    1.447    22 C    1.438    48 H    0.973
                            20 C    0.110
    24   6 C    3.987 --    23 C    1.447    19 C    1.395    49 H    0.973
                            21 C    0.109
    25   6 C    3.929 --    18 C    1.322    29 N    1.316    26 C    1.118
    26   6 C    3.967 --    27 C    1.722    25 C    1.118    50 H    0.974
    27   6 C    3.966 --    26 C    1.722    28 C    1.117    51 H    0.976
    28   6 C    3.929 --     1 C    1.365    29 N    1.301    27 C    1.117
    29   7 N    3.012 --    25 C    1.316    28 C    1.301
    30   7 N    3.474 --    14 C    1.187    17 C    1.166    52 H    0.873
    31   6 C    3.989 --    32 C    1.396    36 C    1.395     7 C    1.028
                            34 C    0.108
    32   6 C    3.987 --    33 C    1.447    31 C    1.396    53 H    0.973
                            35 C    0.109
    33   6 C    3.995 --    32 C    1.447    34 C    1.438    54 H    0.973
                            36 C    0.110
    34   6 C    3.990 --    33 C    1.438    35 C    1.437    55 H    0.974
                            31 C    0.108
    35   6 C    3.995 --    36 C    1.448    34 C    1.437    56 H    0.973
                            32 C    0.109
    36   6 C    3.988 --    35 C    1.448    31 C    1.395    57 H    0.973
                            33 C    0.110
    37   1 H    1.002 --     1 C    0.971
    38   1 H    0.998 --     3 C    0.977
    39   1 H    1.005 --     4 C    0.974
    40   1 H    0.986 --     6 N    0.873
    41   1 H    1.005 --     9 C    0.974
    42   1 H    1.005 --    10 C    0.972
    43   1 H    1.004 --    15 C    0.974
    44   1 H    1.005 --    16 C    0.974
    45   1 H    1.005 --    20 C    0.973
    46   1 H    1.003 --    21 C    0.973
    47   1 H    1.003 --    22 C    0.974
    48   1 H    1.003 --    23 C    0.973
    49   1 H    1.005 --    24 C    0.973
    50   1 H    1.005 --    26 C    0.974
    51   1 H    0.998 --    27 C    0.976
    52   1 H    0.987 --    30 N    0.873
    53   1 H    1.005 --    32 C    0.973
    54   1 H    1.003 --    33 C    0.973
    55   1 H    1.003 --    34 C    0.974
    56   1 H    1.003 --    35 C    0.973
    57   1 H    1.005 --    36 C    0.973
    58   6 C    3.926 --    85 C    1.365    59 C    1.347    94 H    0.971
    59   6 C    3.903 --    58 C    1.347    60 C    1.229    63 N    1.170
    60   6 C    3.954 --    61 C    1.596    59 C    1.229    95 H    0.977
    61   6 C    3.959 --    60 C    1.596    62 C    1.234    96 H    0.974
    62   6 C    3.897 --    64 C    1.305    61 C    1.234    63 N    1.176
    63   7 N    3.469 --    62 C    1.176    59 C    1.170    97 H    0.873
    64   6 C    3.939 --    65 C    1.333    62 C    1.305    88 C    1.028
    65   6 C    3.916 --    64 C    1.333    68 N    1.290    66 C    1.125
    66   6 C    3.966 --    67 C    1.710    65 C    1.125    98 H    0.974
    67   6 C    3.965 --    66 C    1.710    69 C    1.128    99 H    0.972
    68   7 N    3.022 --    69 C    1.339    65 C    1.290
    69   6 C    3.916 --    68 N    1.339    70 C    1.264    67 C    1.128
    70   6 C    3.937 --    69 C    1.264    71 C    1.258   118 C    1.170
    71   6 C    3.892 --    70 C    1.258    72 C    1.248    87 N    1.187
    72   6 C    3.959 --    73 C    1.582    71 C    1.248   100 H    0.973
    73   6 C    3.956 --    72 C    1.582    74 C    1.241   101 H    0.974
    74   6 C    3.899 --    75 C    1.308    73 C    1.241    87 N    1.166
    75   6 C    3.926 --    82 C    1.322    74 C    1.308    76 C    1.030
    76   6 C    3.988 --    81 C    1.394    77 C    1.394    75 C    1.030
                            79 C    0.107
    77   6 C    3.987 --    78 C    1.448    76 C    1.394   102 H    0.973
                            80 C    0.109
    78   6 C    3.995 --    77 C    1.448    79 C    1.437   103 H    0.973
                            81 C    0.109
    79   6 C    3.989 --    80 C    1.437    78 C    1.437   104 H    0.974
                            76 C    0.107
    80   6 C    3.995 --    81 C    1.447    79 C    1.437   105 H    0.973
                            77 C    0.109
    81   6 C    3.986 --    80 C    1.447    76 C    1.394   106 H    0.973
                            78 C    0.109
    82   6 C    3.930 --    75 C    1.322    86 N    1.316    83 C    1.118
    83   6 C    3.967 --    84 C    1.722    82 C    1.118   107 H    0.974
    84   6 C    3.966 --    83 C    1.722    85 C    1.117   108 H    0.976
    85   6 C    3.929 --    58 C    1.365    86 N    1.301    84 C    1.117
    86   7 N    3.013 --    82 C    1.316    85 C    1.301
    87   7 N    3.474 --    71 C    1.187    74 C    1.166   109 H    0.873
    88   6 C    3.989 --    89 C    1.396    93 C    1.394    64 C    1.028
                            91 C    0.108
    89   6 C    3.987 --    90 C    1.447    88 C    1.396   110 H    0.973
                            92 C    0.109
    90   6 C    3.995 --    89 C    1.447    91 C    1.438   111 H    0.973
                            93 C    0.110
    91   6 C    3.990 --    90 C    1.438    92 C    1.437   112 H    0.974
                            88 C    0.108
    92   6 C    3.995 --    93 C    1.448    91 C    1.437   113 H    0.973
                            89 C    0.109
    93   6 C    3.988 --    92 C    1.448    88 C    1.394   114 H    0.973
                            90 C    0.110
    94   1 H    1.002 --    58 C    0.971
    95   1 H    0.998 --    60 C    0.977
    96   1 H    1.005 --    61 C    0.974
    97   1 H    0.986 --    63 N    0.873
    98   1 H    1.005 --    66 C    0.974
    99   1 H    1.005 --    67 C    0.972
   100   1 H    1.005 --    72 C    0.973
   101   1 H    1.005 --    73 C    0.974
   102   1 H    1.005 --    77 C    0.973
   103   1 H    1.003 --    78 C    0.973
   104   1 H    1.003 --    79 C    0.974
   105   1 H    1.003 --    80 C    0.973
   106   1 H    1.005 --    81 C    0.973
   107   1 H    1.005 --    83 C    0.974
   108   1 H    0.998 --    84 C    0.976
   109   1 H    0.987 --    87 N    0.873
   110   1 H    1.005 --    89 C    0.973
   111   1 H    1.003 --    90 C    0.973
   112   1 H    1.003 --    91 C    0.974
   113   1 H    1.003 --    92 C    0.973
   114   1 H    1.005 --    93 C    0.973
   115   6 C    3.928 --   116 C    2.577    13 C    1.172
   116   6 C    3.931 --   115 C    2.577   119 C    1.174
   117   6 C    3.931 --   118 C    2.579   131 C    1.172
   118   6 C    3.928 --   117 C    2.579    70 C    1.170
   119   6 C    3.926 --   146 C    1.262   120 C    1.255   116 C    1.174
   120   6 C    3.892 --   119 C    1.255   121 C    1.251   124 N    1.187
   121   6 C    3.956 --   122 C    1.578   120 C    1.251   155 H    0.974
   122   6 C    3.956 --   121 C    1.578   123 C    1.245   156 H    0.974
   123   6 C    3.895 --   125 C    1.301   122 C    1.245   124 N    1.166
   124   7 N    3.471 --   120 C    1.187   123 C    1.166   157 H    0.874
   125   6 C    3.927 --   126 C    1.336   123 C    1.301   149 C    1.027
   126   6 C    3.918 --   125 C    1.336   129 N    1.288   127 C    1.125
   127   6 C    3.967 --   128 C    1.710   126 C    1.125   158 H    0.974
   128   6 C    3.965 --   127 C    1.710   130 C    1.129   159 H    0.972
   129   7 N    3.010 --   130 C    1.338   126 C    1.288
   130   6 C    3.917 --   129 N    1.338   131 C    1.264   128 C    1.129
   131   6 C    3.925 --   130 C    1.264   132 C    1.255   117 C    1.172
   132   6 C    3.892 --   131 C    1.255   133 C    1.252   148 N    1.187
   133   6 C    3.956 --   134 C    1.577   132 C    1.252   160 H    0.973
   134   6 C    3.956 --   133 C    1.577   135 C    1.246   161 H    0.974
   135   6 C    3.895 --   136 C    1.300   134 C    1.246   148 N    1.167
   136   6 C    3.928 --   143 C    1.338   135 C    1.300   137 C    1.026
   137   6 C    3.988 --   142 C    1.396   138 C    1.395   136 C    1.026
                           140 C    0.108
   138   6 C    3.987 --   139 C    1.447   137 C    1.395   162 H    0.973
                           141 C    0.110
   139   6 C    3.995 --   138 C    1.447   140 C    1.438   163 H    0.973
                           142 C    0.110
   140   6 C    3.990 --   141 C    1.438   139 C    1.438   164 H    0.974
                           137 C    0.108
   141   6 C    3.995 --   142 C    1.447   140 C    1.438   165 H    0.973
                           138 C    0.110
   142   6 C    3.988 --   141 C    1.447   137 C    1.396   166 H    0.973
                           139 C    0.110
   143   6 C    3.918 --   136 C    1.338   147 N    1.285   144 C    1.125
   144   6 C    3.967 --   145 C    1.710   143 C    1.125   167 H    0.974
   145   6 C    3.965 --   144 C    1.710   146 C    1.128   168 H    0.972
   146   6 C    3.916 --   147 N    1.341   119 C    1.262   145 C    1.128
   147   7 N    3.010 --   146 C    1.341   143 C    1.285
   148   7 N    3.471 --   132 C    1.187   135 C    1.167   169 H    0.874
   149   6 C    3.988 --   150 C    1.396   154 C    1.394   125 C    1.027
                           152 C    0.108
   150   6 C    3.987 --   151 C    1.447   149 C    1.396   170 H    0.973
                           153 C    0.109
   151   6 C    3.995 --   150 C    1.447   152 C    1.438   171 H    0.973
                           154 C    0.110
   152   6 C    3.990 --   151 C    1.438   153 C    1.437   172 H    0.974
                           149 C    0.108
   153   6 C    3.995 --   154 C    1.448   152 C    1.437   173 H    0.973
                           150 C    0.109
   154   6 C    3.988 --   153 C    1.448   149 C    1.394   174 H    0.973
                           151 C    0.110
   155   1 H    1.004 --   121 C    0.974
   156   1 H    1.005 --   122 C    0.974
   157   1 H    0.987 --   124 N    0.874
   158   1 H    1.005 --   127 C    0.974
   159   1 H    1.005 --   128 C    0.972
   160   1 H    1.004 --   133 C    0.973
   161   1 H    1.005 --   134 C    0.974
   162   1 H    1.005 --   138 C    0.973
   163   1 H    1.003 --   139 C    0.973
   164   1 H    1.003 --   140 C    0.974
   165   1 H    1.003 --   141 C    0.973
   166   1 H    1.005 --   142 C    0.973
   167   1 H    1.005 --   144 C    0.974
   168   1 H    1.004 --   145 C    0.972
   169   1 H    0.987 --   148 N    0.874
   170   1 H    1.005 --   150 C    0.973
   171   1 H    1.003 --   151 C    0.973
   172   1 H    1.003 --   152 C    0.974
   173   1 H    1.003 --   153 C    0.973
   174   1 H    1.005 --   154 C    0.973
 ---------------------------------------------------------------------------

           -------------------------------------------------
          | TOTAL ENERGY             -282.899172266308 Eh   |
          | GRADIENT NORM               0.000439685120 Eh/α |
          | HOMO-LUMO GAP               0.874803374488 eV   |
           -------------------------------------------------

 * finished run on 2022/07/29 at 14:04:25.791
