   * xtb version 6.5.1 (b24c23e) compiled by 'conda@728c89f4b128' on 2022-07-12
          program call               : xtb Co_H_C8_2.xyz --gfn 1 --opt -T 48

   ID    Z sym.   atoms
    1   27 Co     1, 37
    2    6 C      2-6, 8-11, 13-18, 20-24, 38-42, 44-47, 49-54, 56-60, 73-80
    3    7 N      7, 12, 19, 25, 43, 48, 55, 61
    4    1 H      26-36, 62-72
########################################################################
[WARNING] Please study the warnings concerning your input carefully
-1- prog_main_parseArguments: Unknown option '-T' provided
########################################################################

          :  Hamiltonian                  GFN1-xTB          :
 * total energy  :  -144.9829231 Eh     change        0.5703669E-09 Eh
 * total energy  :  -145.4988481 Eh     change       -0.5159250E+00 Eh
 * total energy  :  -145.5984381 Eh     change       -0.9959002E-01 Eh
 * total energy  :  -145.6388892 Eh     change       -0.4045105E-01 Eh
 * total energy  :  -145.6521078 Eh     change       -0.1321859E-01 Eh
 * total energy  :  -145.6601319 Eh     change       -0.8024162E-02 Eh
 * total energy  :  -145.6651665 Eh     change       -0.5034591E-02 Eh
 * total energy  :  -145.6687922 Eh     change       -0.3625703E-02 Eh
 * total energy  :  -145.6707220 Eh     change       -0.1929760E-02 Eh
 * total energy  :  -145.6727035 Eh     change       -0.1981546E-02 Eh
 * total energy  :  -145.6754935 Eh     change       -0.2412233E-03 Eh
 * total energy  :  -145.6756575 Eh     change       -0.1639870E-03 Eh
 * total energy  :  -145.6757503 Eh     change       -0.9279685E-04 Eh
 * total energy  :  -145.6757856 Eh     change       -0.3535628E-04 Eh
 * total energy  :  -145.6758002 Eh     change       -0.1459268E-04 Eh
 * total energy  :  -145.6758082 Eh     change       -0.7998777E-05 Eh
 * total energy  :  -145.6758192 Eh     change       -0.1095451E-04 Eh
 * total energy  :  -145.6758262 Eh     change       -0.7025549E-05 Eh
 * total energy  :  -145.6758298 Eh     change       -0.3579657E-05 Eh
   *** GEOMETRY OPTIMIZATION CONVERGED AFTER 22 ITERATIONS ***

 final structure:
================
80
 xtb: 6.5.1 (b24c23e)
Co           5.24294129946003       -0.01261121176113       -0.00307797105474
C            1.83395241676956       -0.05877259065951       -0.04841869100010
C            2.51107706403813       -0.89982366316898       -0.90333596722283
C            1.85616214537386       -1.79628499978325       -1.80950592514217
C            2.83177201408256       -2.45399476834706       -2.47681341612558
C            4.07858637100876       -1.95737457453181       -1.97508881282066
N            3.87464213813625       -1.00250802942409       -1.01246231252455
C            5.30427319480208       -2.40303509907082       -2.41847881733720
C            6.50464171842412       -1.93462402518830       -1.93542770526336
C            7.77308795677988       -2.41035822009035       -2.39637328809393
C            8.71585181052683       -1.73111968800181       -1.70236504263148
N            6.66534904057878       -0.96966836341206       -0.96788183431251
C            8.01840584697808       -0.84321509202468       -0.82374872527643
C            8.67304326171798        0.03342012696858        0.04337962235035
C            7.97376761170154        0.89889313129992        0.88591784282418
C            8.62360039994834        1.80759295793012        1.77944973831754
C            7.64460151149659        2.47251481027232        2.43643651940332
C            6.40193649742712        1.96462903599703        1.94054448119450
N            6.61442838177842        0.99893267445305        0.98397346038804
C            5.17624563978786        2.40272463318074        2.38737159120998
C            3.97560486386854        1.91654796973058        1.91857244919615
C            2.70285089518455        2.37451593627634        2.39137764131403
C            1.76343460439975        1.68213334121099        1.70748974324661
C            2.46606562350138        0.80415547815139        0.81910769913690
N            3.82298381000385        0.95342344048916        0.95450256403497
H            0.75054058642855       -0.07574202188630       -0.05989827400225
H            0.78604352720733       -1.89192474672722       -1.90386564619173
H            2.74078682138400       -3.20996925525907       -3.24065727455400
H            5.32497185560881       -3.16638475674928       -3.18746873305151
H            7.90211848832906       -3.16735093484368       -3.15342762487483
H            9.78936605670609       -1.80763315563520       -1.76584060663146
H            9.69278206085710        1.90752951556393        1.87620655933861
H            7.73303421456927        3.23763990735842        3.19118831559368
H            5.15446972490719        3.17125382888395        3.15120034796418
H            2.57132218574829        3.12980239512080        3.14997722023720
H            0.68899306100189        1.74251810861316        1.77927210008829
Co          23.84356867042411        0.00699642186767        0.00521211054030
C           27.25240465822732        0.07524653319569       -0.00142046319802
C           26.57403788465638        1.27205874064368       -0.06626583323870
C           27.22757851156278        2.54567908030408       -0.13304259321724
C           26.25096045956312        3.48035332356384       -0.18117691629730
C           25.00491422135137        2.77409262443583       -0.14324623373170
N           25.21032171225191        1.42014539633278       -0.07505388951309
C           23.77850299289434        3.40076265774070       -0.17016749422660
C           22.57894516832367        2.72773754786960       -0.12913542564692
C           21.30970190676622        3.38826687506982       -0.15064118627518
C           20.36809401574727        2.41759550187210       -0.09618003814602
N           22.41984215734032        1.36259817565654       -0.06367069128832
C           21.06701861185298        1.17040232315941       -0.04384397877233
C           20.41359545278311       -0.06232669452513        0.00671618580318
C           21.11399120599180       -1.26873300550708        0.04902381962270
C           20.46561167345053       -2.54290575907644        0.09915209265503
C           21.44567894934813       -3.47565911932102        0.13966418638916
C           22.68754410476319       -2.76481563349289        0.11484936156820
N           22.47349805061504       -1.40713067932478        0.05583847734534
C           23.91396865971952       -3.38810962141174        0.15153335406497
C           25.11382041618196       -2.71165949724102        0.13047686141316
C           26.38734402135078       -3.36717708252569        0.17107615369505
C           27.32567355922470       -2.39389594152718        0.12809086911609
C           26.62163111487598       -1.14744323700181        0.06142636074820
N           25.26492983876230       -1.35037516585001        0.06389013561687
H           28.33580168773937        0.09656747203877       -0.00028409766608
H           28.29754765184109        2.68102643375070       -0.14032959267561
H           26.34084884839999        4.55370940042025       -0.23649667984578
H           23.75651137368104        4.48293024210880       -0.22412561275390
H           21.17947664376732        4.45754018703257       -0.20077856506476
H           19.29443536139804        2.51548702296728       -0.09272610419194
H           19.39661529170254       -2.68335642531748        0.10261553180315
H           21.35853929794854       -4.54959385617531        0.18392546200856
H           23.93697225071815       -4.47051095794210        0.20071944334588
H           26.52008038199904       -4.43614351599665        0.22512153210698
H           28.40022713744690       -2.48578160222569        0.13876589066641
C           10.07703005643697        0.04166074674229        0.06394235982687
C           11.30152292024417        0.02790190194494        0.06782790273106
C           12.64400551562256        0.00997664500960        0.06622516012194
C           13.87450903437067       -0.01910133018150        0.05589703878133
C           15.21193427241168       -0.04558191125430        0.04683017296993
C           16.44255258322410       -0.07083782291291        0.03621476922613
C           17.78502525177666       -0.08221286870868        0.02209695665268
C           19.00960972071262       -0.08305762114583        0.01542397920252

          :  Hamiltonian                  GFN1-xTB          :
         :: total energy            -145.675829775789 Eh    ::
         :: gradient norm              0.000698098595 Eh/a0 ::
         :: HOMO-LUMO gap              0.000646360406 eV    ::
         :: SCC energy              -148.124639449100 Eh    ::
         :: repulsion energy           2.514509640313 Eh    ::

    * Orbital Energies and Occupations

         #    Occupation            Energy/Eh            Energy/eV
      -------------------------------------------------------------
         1        2.0000           -0.7728521             -21.0304
       ...           ...                  ...                  ...
       124        2.0000           -0.4215437             -11.4708
       125        2.0000           -0.4144606             -11.2780
       126        2.0000           -0.4002189             -10.8905
       127        2.0000           -0.4002167             -10.8904
       128        2.0000           -0.3992074             -10.8630
       129        2.0000           -0.3992004             -10.8628
       130        1.9999           -0.3973684             -10.8129
       131        1.9998           -0.3969463             -10.8015
       132        1.9998           -0.3969452             -10.8014
       133        1.9998           -0.3967401             -10.7958
       134        1.9998           -0.3967371             -10.7958
       135        1.8735           -0.3907252             -10.6322
       136        1.0700           -0.3882974             -10.5661 (HOMO)
       137        1.0575           -0.3882737             -10.5655 (LUMO)
       138                         -0.3402294              -9.2581
       139                         -0.3329801              -9.0608
       140                         -0.3297959              -8.9742
       141                         -0.3297881              -8.9740
       142                         -0.3043773              -8.2825
       143                         -0.3038081              -8.2670
       144                         -0.3023681              -8.2279
       145                         -0.3023590              -8.2276
       146                         -0.2904316              -7.9030
       147                         -0.2787847              -7.5861
       ...                                ...                  ...
       286                          1.6010408              43.5665
      -------------------------------------------------------------
                  HL-Gap            0.0000238 Eh            0.0006 eV

Wiberg/Mayer (AO) data.
largest (>0.10) Wiberg bond orders for each atom

     #   Z sym  total        # sym  WBO       # sym  WBO       # sym  WBO
 ---------------------------------------------------------------------------
     1  27 Co   2.998 --    25 N    0.638     7 N    0.637    12 N    0.633
                            19 N    0.632
     2   6 C    3.935 --    24 C    1.367     3 C    1.367    26 H    0.970
     3   6 C    3.924 --     2 C    1.367     7 N    1.207     4 C    1.170
     4   6 C    3.959 --     5 C    1.655     3 C    1.170    27 H    0.975
     5   6 C    3.962 --     4 C    1.655     6 C    1.171    28 H    0.975
     6   6 C    3.921 --     8 C    1.362     7 N    1.208     5 C    1.171
     7   7 N    3.351 --     6 C    1.208     3 C    1.207     1 Co   0.637
     8   6 C    3.940 --     9 C    1.374     6 C    1.362    29 H    0.970
     9   6 C    3.916 --     8 C    1.374    12 N    1.191    10 C    1.175
    10   6 C    3.957 --    11 C    1.644     9 C    1.175    30 H    0.975
    11   6 C    3.961 --    10 C    1.644    13 C    1.185    31 H    0.973
    12   7 N    3.354 --    13 C    1.235     9 C    1.191     1 Co   0.633
    13   6 C    3.902 --    14 C    1.262    12 N    1.235    11 C    1.185
    14   6 C    3.941 --    15 C    1.263    13 C    1.262    73 C    1.187
    15   6 C    3.903 --    14 C    1.263    19 N    1.235    16 C    1.185
    16   6 C    3.961 --    17 C    1.644    15 C    1.185    32 H    0.973
    17   6 C    3.957 --    16 C    1.644    18 C    1.175    33 H    0.975
    18   6 C    3.916 --    20 C    1.374    19 N    1.191    17 C    1.175
    19   7 N    3.353 --    15 C    1.235    18 C    1.191     1 Co   0.632
    20   6 C    3.940 --    18 C    1.374    21 C    1.362    34 H    0.970
    21   6 C    3.921 --    20 C    1.362    25 N    1.208    22 C    1.170
    22   6 C    3.962 --    23 C    1.656    21 C    1.170    35 H    0.975
    23   6 C    3.959 --    22 C    1.656    24 C    1.170    36 H    0.975
    24   6 C    3.924 --     2 C    1.367    25 N    1.207    23 C    1.170
    25   7 N    3.352 --    21 C    1.208    24 C    1.207     1 Co   0.638
    26   1 H    1.000 --     2 C    0.970
    27   1 H    0.997 --     4 C    0.975
    28   1 H    0.997 --     5 C    0.975
    29   1 H    1.000 --     8 C    0.970
    30   1 H    0.997 --    10 C    0.975
    31   1 H    1.002 --    11 C    0.973
    32   1 H    1.001 --    16 C    0.973
    33   1 H    0.997 --    17 C    0.975
    34   1 H    1.000 --    20 C    0.970
    35   1 H    0.997 --    22 C    0.975
    36   1 H    0.997 --    23 C    0.975
    37  27 Co   2.998 --    61 N    0.638    43 N    0.637    48 N    0.633
                            55 N    0.632
    38   6 C    3.935 --    60 C    1.367    39 C    1.367    62 H    0.970
    39   6 C    3.924 --    38 C    1.367    43 N    1.207    40 C    1.170
    40   6 C    3.959 --    41 C    1.655    39 C    1.170    63 H    0.975
    41   6 C    3.962 --    40 C    1.655    42 C    1.171    64 H    0.975
    42   6 C    3.921 --    44 C    1.362    43 N    1.208    41 C    1.171
    43   7 N    3.351 --    42 C    1.208    39 C    1.207    37 Co   0.637
    44   6 C    3.940 --    45 C    1.374    42 C    1.362    65 H    0.970
    45   6 C    3.916 --    44 C    1.374    48 N    1.191    46 C    1.175
    46   6 C    3.957 --    47 C    1.644    45 C    1.175    66 H    0.975
    47   6 C    3.961 --    46 C    1.644    49 C    1.185    67 H    0.973
    48   7 N    3.354 --    49 C    1.235    45 C    1.191    37 Co   0.633
    49   6 C    3.902 --    50 C    1.262    48 N    1.235    47 C    1.185
    50   6 C    3.941 --    51 C    1.264    49 C    1.262    80 C    1.187
    51   6 C    3.903 --    50 C    1.264    55 N    1.235    52 C    1.185
    52   6 C    3.961 --    53 C    1.644    51 C    1.185    68 H    0.973
    53   6 C    3.957 --    52 C    1.644    54 C    1.175    69 H    0.975
    54   6 C    3.916 --    56 C    1.374    55 N    1.191    53 C    1.175
    55   7 N    3.353 --    51 C    1.235    54 C    1.191    37 Co   0.632
    56   6 C    3.940 --    54 C    1.374    57 C    1.362    70 H    0.970
    57   6 C    3.921 --    56 C    1.362    61 N    1.208    58 C    1.170
    58   6 C    3.962 --    59 C    1.656    57 C    1.170    71 H    0.975
    59   6 C    3.959 --    58 C    1.656    60 C    1.170    72 H    0.975
    60   6 C    3.924 --    38 C    1.367    61 N    1.207    59 C    1.170
    61   7 N    3.352 --    57 C    1.208    60 C    1.207    37 Co   0.638
    62   1 H    1.000 --    38 C    0.970
    63   1 H    0.997 --    40 C    0.975
    64   1 H    0.997 --    41 C    0.975
    65   1 H    1.000 --    44 C    0.970
    66   1 H    0.997 --    46 C    0.975
    67   1 H    1.002 --    47 C    0.973
    68   1 H    1.001 --    52 C    0.973
    69   1 H    0.997 --    53 C    0.975
    70   1 H    1.000 --    56 C    0.970
    71   1 H    0.997 --    58 C    0.975
    72   1 H    0.997 --    59 C    0.975
    73   6 C    3.872 --    74 C    2.439    14 C    1.187    76 C    0.186
    74   6 C    3.935 --    73 C    2.439    75 C    1.345
    75   6 C    3.889 --    76 C    2.333    74 C    1.345    78 C    0.181
    76   6 C    3.923 --    75 C    2.333    77 C    1.370    73 C    0.186
    77   6 C    3.923 --    78 C    2.333    76 C    1.370    80 C    0.186
    78   6 C    3.889 --    77 C    2.333    79 C    1.345    75 C    0.181
    79   6 C    3.935 --    80 C    2.439    78 C    1.345
    80   6 C    3.872 --    79 C    2.439    50 C    1.187    77 C    0.186
 ---------------------------------------------------------------------------

           -------------------------------------------------
          | TOTAL ENERGY             -145.675829775789 Eh   |
          | GRADIENT NORM               0.000698098595 Eh/α |
          | HOMO-LUMO GAP               0.000646360406 eV   |
           -------------------------------------------------

 * finished run on 2022/07/29 at 22:18:45.445
