   * xtb version 6.5.1 (b24c23e) compiled by 'conda@728c89f4b128' on 2022-07-12
          program call               : xtb Fe_m-CP_C4_2.xyz --gfn 1 --opt -T 48

   ID    Z sym.   atoms
    1   26 Fe     1, 63
    2    6 C      2-6, 8-12, 15-20, 22-27, 29-35, 38-42, 64-68, 70-74, 77-82,
                  84-89, 91-97, 100-104, 125-128
    3    7 N      7, 21, 28, 43, 69, 83, 90, 105
    4    8 O      13, 14, 36, 37, 75, 76, 98, 99
    5    1 H      44-62, 106-124
########################################################################
[WARNING] Please study the warnings concerning your input carefully
-1- prog_main_parseArguments: Unknown option '-T' provided
########################################################################

          :  Hamiltonian                  GFN1-xTB          :
 * total energy  :  -240.4299480 Eh     change       -0.2264358E-09 Eh
 * total energy  :  -241.5264643 Eh     change       -0.1096516E+01 Eh
 * total energy  :  -241.6544386 Eh     change       -0.1279744E+00 Eh
 * total energy  :  -241.7277132 Eh     change       -0.7327452E-01 Eh
 * total energy  :  -241.7566683 Eh     change       -0.2895519E-01 Eh
 * total energy  :  -241.7708100 Eh     change       -0.1414168E-01 Eh
 * total energy  :  -241.7784648 Eh     change       -0.7654821E-02 Eh
 * total energy  :  -241.7832081 Eh     change       -0.4743299E-02 Eh
 * total energy  :  -241.7864292 Eh     change       -0.3221053E-02 Eh
 * total energy  :  -241.7886506 Eh     change       -0.2221389E-02 Eh
 * total energy  :  -241.7950741 Eh     change       -0.2732628E-04 Eh
 * total energy  :  -241.7950924 Eh     change       -0.1834997E-04 Eh
 * total energy  :  -241.7951120 Eh     change       -0.1959820E-04 Eh
 * total energy  :  -241.7951223 Eh     change       -0.1025183E-04 Eh
 * total energy  :  -241.7951313 Eh     change       -0.9041783E-05 Eh
 * total energy  :  -241.7951369 Eh     change       -0.5570520E-05 Eh
 * total energy  :  -241.7951423 Eh     change       -0.5398414E-05 Eh
 * total energy  :  -241.7951489 Eh     change       -0.6596667E-05 Eh
 * total energy  :  -241.7951532 Eh     change       -0.4272771E-05 Eh
   *** GEOMETRY OPTIMIZATION CONVERGED AFTER 41 ITERATIONS ***

 final structure:
================
128
 xtb: 6.5.1 (b24c23e)
Fe          15.76085028840041        0.02559304016699       -0.02178263383783
C           12.37391286925040        0.01338384636666        0.15565773850393
C           13.01667417679263        1.23369775569935        0.17653047760759
C           12.33139519865416        2.48977061012764        0.23113950013627
C           13.28366510532354        3.44716371985778        0.32377851111925
C           14.54966082866289        2.77235370762431        0.33570515698145
N           14.37376287039587        1.42071648789082        0.21477967631854
C           15.77147667567957        3.41763788104171        0.48982772520380
C           15.77362705949562        4.88540427290017        0.70240303089027
C           15.17755763133068        5.43495778642696        1.83357143661214
C           15.18482600879680        6.81450155291443        2.03587102461694
C           14.54182895024479        7.34040711376368        3.26674565965196
O           14.62305173010058        8.67357279623099        3.38563941982390
O           13.99439145295252        6.65645134009206        4.09300752077788
C           15.78420933546613        7.65542113143960        1.09836814255418
C           16.37417461863985        7.11015984320748       -0.03115050762748
C           16.37366189541358        5.73650612699889       -0.22835825023285
C           16.98795817262940        2.75112064612674        0.45641004886332
C           18.25467960296488        3.39023769930504        0.65485906391455
C           19.20350771078326        2.44012550665612        0.47505131538241
N           17.16370167915951        1.41225187996873        0.19958779032233
C           18.51379791059135        1.22394990235133        0.17830125384758
C           19.17187457103023        0.02814049527377       -0.13392526602593
C           18.49418381826473       -1.16847471721983       -0.39813709377182
C           19.16087437875029       -2.38022129750439       -0.75861884028418
C           18.20483739699612       -3.33563735802216       -0.85289317228064
C           16.95765925667450       -2.70387334296594       -0.53991596221185
N           17.14948042175173       -1.36550756791935       -0.29222011615844
C           15.74619172994657       -3.37654119059561       -0.46634240368581
C           15.73634895549800       -4.84502845344937       -0.67386093979460
C           16.42228026378582       -5.68851368258497        0.20253203426049
C           16.40933628652028       -7.06363573115575        0.01435593351117
C           15.71720693177449       -7.61223052209193       -1.05229414806017
C           15.03022291850781       -6.77897583988587       -1.93642194002285
C           14.30161602712273       -7.40543243322377       -3.06824957003650
O           13.65969344391067       -6.52301012447778       -3.84743666597704
O           14.27432243737456       -8.58960485258433       -3.28590568035958
C           15.03867291086059       -5.39885039228939       -1.74491693861259
C           14.53897357415196       -2.73633280701940       -0.20881544561762
C           13.28121274661090       -3.41634295681878       -0.09030116853255
C           12.33611513532019       -2.46285117450337        0.08265164213881
C           13.01833730292336       -1.20406024287553        0.07980951165627
N           14.36874229038579       -1.38608126230332       -0.06515016055261
H           11.29074265370473        0.01058430064786        0.20211923520626
H           11.25950181100027        2.60356144315305        0.20086312896361
H           13.15430941364066        4.51593158823606        0.37649374492687
H           14.71571810542412        4.79503252670577        2.57745663380308
H           14.18424995154986        8.93691298641787        4.21096681309082
H           15.78550016665713        8.72717682823709        1.25563594802692
H           16.83855767032144        7.75852624020279       -0.76549051578378
H           16.82896395425078        5.31615138260325       -1.11807819418814
H           18.39027348291166        4.42993359568481        0.90452367072702
H           20.27531301240293        2.53923073963714        0.53474186284683
H           20.22324505378399       -2.47194836720886       -0.91764169541759
H           18.32254305459411       -4.37394976999829       -1.11703482073182
H           16.95532693668945       -5.26087925427139        1.04428223491302
H           16.94139856392842       -7.70699792626688        0.70577790201182
H           15.69748514099621       -8.68398061152517       -1.21464191442444
H           13.21201687795965       -7.00856736274108       -4.55926023829707
H           14.51407272723030       -4.75283268002310       -2.43883268888930
H           13.15138013685709       -4.48555514184313       -0.13203231420176
H           11.27096299298817       -2.58107428057290        0.20237275536480
Fe          29.17808104976985       -0.01677473377377       -0.02814614122585
C           32.56506633403040       -0.06223546868675        0.14678901028341
C           31.92296322047255       -1.22286706613250       -0.23184667206189
C           32.60885738630560       -2.42797439181940       -0.58899033982440
C           31.65700562331453       -3.36334813090131       -0.81495875945442
C           30.39061545397852       -2.72945832621669       -0.58537290635454
N           30.56590187897677       -1.41239623363779       -0.25829738597769
C           29.16885575566897       -3.38958814235474       -0.65287780699675
C           29.16724006738977       -4.84623243435643       -0.93155396325637
C           29.76219165967878       -5.73489424582184       -0.04094142825998
C           29.75568010596611       -7.10486652914606       -0.30019742193720
C           30.39791432400794       -8.00362188279053        0.69221217452650
O           30.31688059434370       -9.30257596355568        0.36954191619986
O           30.94394238591493       -7.62670976177769        1.69720701007635
C           29.15795247462169       -7.59371569379806       -1.46169519130865
C           28.56902220438369       -6.70967148813569       -2.35207757708391
C           28.56893470618673       -5.34688526671542       -2.09002971959096
C           27.95206307151155       -2.74889202027830       -0.46825229576766
C           26.68556114697432       -3.41816729473551       -0.49070483925656
C           25.73637284562062       -2.46203777616829       -0.34875147908515
N           27.77581700964155       -1.39987005293141       -0.27208866126700
C           26.42558044108076       -1.21555610365176       -0.23044941562014
C           25.76704590308637        0.01639479709765       -0.13494558660317
C           26.44426051203151        1.23407303852914        0.00482351682079
C           25.77745268287479        2.49721130228532        0.05679798704336
C           26.73344210134014        3.43170402405303        0.27707192343393
C           27.98062500278232        2.73264111485549        0.36874775693631
N           27.78892878277543        1.38623873644355        0.16888539136902
C           29.19166014243565        3.34472051678435        0.65902159421055
C           29.20084779122582        4.80073763092481        0.94116032903759
C           28.51302112805834        5.31222123464264        2.04359888256596
C           28.52515646116018        6.67353786598846        2.31408008356140
C           29.21830778089890        7.54010345119391        1.48560187226791
C           29.90699860965568        7.04084304615957        0.37908473567625
C           30.63583480310529        8.00241839130751       -0.48611585926536
O           31.27944842484025        7.42242132238908       -1.50941555972908
O           30.66298680968732        9.19282526028254       -0.30539411828983
C           29.89952524707094        5.67364948935456        0.11023834540980
C           30.39881354072717        2.65555642409803        0.69635098470776
C           31.65601765940853        3.26002205337714        1.03169494380851
C           32.60151362301104        2.30247194565757        0.88528624669590
C           31.92000962069548        1.11324511813809        0.47141952886461
N           30.56965842810384        1.33223965823192        0.39229315506784
H           33.64821264080975       -0.07436262333346        0.19240852266755
H           33.68085017527984       -2.52554462340298       -0.65332558004817
H           31.78697393965028       -4.39086083754801       -1.11345749348333
H           30.22263875095051       -5.37277100563828        0.87175196102070
H           30.75480399134012       -9.82085323398475        1.06425288127775
H           29.15719015607099       -8.65808142557473       -1.66298653773559
H           28.10591902608284       -7.08284956961253       -3.25847412418184
H           28.11451918768369       -4.65918200627480       -2.79442296706006
H           26.55035161153212       -4.48222896888716       -0.59627103408197
H           24.66460032763873       -2.57556044116417       -0.32473883581203
H           24.71506074860872        2.63546669600291       -0.06371465683367
H           26.61582162460454        4.49967490432115        0.36312970619510
H           27.97915097931629        4.63330220240071        2.69904836363594
H           27.99164486243975        7.05616207243081        3.17665395582728
H           29.23723415572989        8.60625115479353        1.68147052734782
H           31.72773086972087        8.11353267473126       -2.02348229304653
H           30.42562803271199        5.28933186100454       -0.75555101011678
H           31.78522139184350        4.28440413235893        1.34114376473699
H           33.66649375515274        2.37542828219108        1.03812082657582
C           21.79622271510562        0.03216960714572       -0.18828976762409
C           20.57244744172246        0.02815355258711       -0.17290358569122
C           23.14272452334319        0.03047576413517       -0.18793293119859
C           24.36653802113927        0.02902198688572       -0.17271421170805

          :  Hamiltonian                  GFN1-xTB          :
         :: total energy            -241.795153167985 Eh    ::
         :: gradient norm              0.000765232068 Eh/a0 ::
         :: HOMO-LUMO gap              0.085714279837 eV    ::
         :: SCC energy              -245.292726313942 Eh    ::
         :: repulsion energy           3.612250387905 Eh    ::

    * Orbital Energies and Occupations

         #    Occupation            Energy/Eh            Energy/eV
      -------------------------------------------------------------
         1        2.0000           -0.8350259             -22.7222
       ...           ...                  ...                  ...
       203        2.0000           -0.4347153             -11.8292
       204        2.0000           -0.4345319             -11.8242
       205        2.0000           -0.4344539             -11.8221
       206        2.0000           -0.4058600             -11.0440
       207        2.0000           -0.4046592             -11.0113
       208        2.0000           -0.4046549             -11.0112
       209        1.9917           -0.3969752             -10.8022
       210        1.9916           -0.3969595             -10.8018
       211        1.9468           -0.3951836             -10.7535
       212        1.9456           -0.3951625             -10.7529
       213        1.9402           -0.3950705             -10.7504
       214        1.9401           -0.3950688             -10.7504
       215        1.6732           -0.3933158             -10.7027 (HOMO)
       216        0.3136           -0.3901658             -10.6170 (LUMO)
       217        0.2571           -0.3899457             -10.6110
       218                         -0.3470312              -9.4432
       219                         -0.3362240              -9.1491
       220                         -0.3362195              -9.1490
       221                         -0.3322640              -9.0414
       222                         -0.3141347              -8.5480
       223                         -0.3137156              -8.5366
       224                         -0.3130086              -8.5174
       225                         -0.3129729              -8.5164
       226                         -0.3095301              -8.4227
       ...                                ...                  ...
       446                          1.5029820              40.8982
      -------------------------------------------------------------
                  HL-Gap            0.0031499 Eh            0.0857 eV

Wiberg/Mayer (AO) data.
largest (>0.10) Wiberg bond orders for each atom

     #   Z sym  total        # sym  WBO       # sym  WBO       # sym  WBO
 ---------------------------------------------------------------------------
     1  26 Fe   3.131 --    43 N    0.669     7 N    0.666    21 N    0.661
                            28 N    0.658
     2   6 C    3.921 --     3 C    1.363    42 C    1.363    44 H    0.970
     3   6 C    3.923 --     2 C    1.363     7 N    1.209     4 C    1.172
     4   6 C    3.959 --     5 C    1.651     3 C    1.172    45 H    0.975
     5   6 C    3.961 --     4 C    1.651     6 C    1.174    46 H    0.973
     6   6 C    3.921 --     8 C    1.315     7 N    1.225     5 C    1.174
     7   7 N    3.379 --     6 C    1.225     3 C    1.209     1 Fe   0.666
     8   6 C    3.922 --    18 C    1.333     6 C    1.315     9 C    1.025
     9   6 C    3.988 --    10 C    1.409    17 C    1.388     8 C    1.025
                            15 C    0.103
    10   6 C    3.983 --     9 C    1.409    11 C    1.396    47 H    0.968
                            16 C    0.104
    11   6 C    3.988 --    10 C    1.396    15 C    1.392    12 C    1.004
                            17 C    0.100
    12   6 C    3.836 --    14 O    1.693    13 O    1.090    11 C    1.004
    13   8 O    2.099 --    12 C    1.090    48 H    0.838    14 O    0.129
    14   8 O    1.962 --    12 C    1.693    13 O    0.129
    15   6 C    3.987 --    16 C    1.448    11 C    1.392    49 H    0.970
                             9 C    0.103
    16   6 C    3.994 --    15 C    1.448    17 C    1.441    50 H    0.972
                            10 C    0.104
    17   6 C    3.987 --    16 C    1.441     9 C    1.388    51 H    0.973
                            11 C    0.100
    18   6 C    3.918 --     8 C    1.333    21 N    1.201    19 C    1.180
    19   6 C    3.956 --    20 C    1.637    18 C    1.180    52 H    0.973
    20   6 C    3.960 --    19 C    1.637    22 C    1.189    53 H    0.973
    21   7 N    3.379 --    22 C    1.246    18 C    1.201     1 Fe   0.661
    22   6 C    3.904 --    23 C    1.251    21 N    1.246    20 C    1.189
    23   6 C    3.920 --    22 C    1.251    24 C    1.250   126 C    1.203
    24   6 C    3.904 --    23 C    1.250    28 N    1.246    25 C    1.189
    25   6 C    3.960 --    26 C    1.637    24 C    1.189    54 H    0.973
    26   6 C    3.956 --    25 C    1.637    27 C    1.180    55 H    0.973
    27   6 C    3.918 --    29 C    1.333    28 N    1.201    26 C    1.180
    28   7 N    3.378 --    24 C    1.246    27 C    1.201     1 Fe   0.658
    29   6 C    3.922 --    27 C    1.333    39 C    1.315    30 C    1.025
    30   6 C    3.988 --    38 C    1.406    31 C    1.389    29 C    1.025
                            33 C    0.103
    31   6 C    3.987 --    32 C    1.439    30 C    1.389    56 H    0.973
                            34 C    0.100
    32   6 C    3.994 --    33 C    1.451    31 C    1.439    57 H    0.972
                            38 C    0.104
    33   6 C    3.986 --    32 C    1.451    34 C    1.388    58 H    0.969
                            30 C    0.103
    34   6 C    3.988 --    38 C    1.400    33 C    1.388    35 C    1.004
                            31 C    0.100
    35   6 C    3.836 --    37 O    1.693    36 O    1.090    34 C    1.004
    36   8 O    2.099 --    35 C    1.090    59 H    0.838    37 O    0.129
    37   8 O    1.961 --    35 C    1.693    36 O    0.129
    38   6 C    3.985 --    30 C    1.406    34 C    1.400    60 H    0.969
                            32 C    0.104
    39   6 C    3.921 --    29 C    1.315    43 N    1.225    40 C    1.174
    40   6 C    3.961 --    41 C    1.650    39 C    1.174    61 H    0.973
    41   6 C    3.959 --    40 C    1.650    42 C    1.173    62 H    0.975
    42   6 C    3.923 --     2 C    1.363    43 N    1.209    41 C    1.173
    43   7 N    3.380 --    39 C    1.225    42 C    1.209     1 Fe   0.669
    44   1 H    1.000 --     2 C    0.970
    45   1 H    0.997 --     4 C    0.975
    46   1 H    1.003 --     5 C    0.973
    47   1 H    1.006 --    10 C    0.968
    48   1 H    0.872 --    13 O    0.838
    49   1 H    1.005 --    15 C    0.970
    50   1 H    1.001 --    16 C    0.972
    51   1 H    1.004 --    17 C    0.973
    52   1 H    1.004 --    19 C    0.973
    53   1 H    1.002 --    20 C    0.973
    54   1 H    1.002 --    25 C    0.973
    55   1 H    1.004 --    26 C    0.973
    56   1 H    1.004 --    31 C    0.973
    57   1 H    1.001 --    32 C    0.972
    58   1 H    1.005 --    33 C    0.969
    59   1 H    0.873 --    36 O    0.838
    60   1 H    1.007 --    38 C    0.969
    61   1 H    1.004 --    40 C    0.973
    62   1 H    0.997 --    41 C    0.975
    63  26 Fe   3.131 --   105 N    0.669    69 N    0.666    83 N    0.661
                            90 N    0.657
    64   6 C    3.921 --    65 C    1.363   104 C    1.362   106 H    0.970
    65   6 C    3.923 --    64 C    1.363    69 N    1.209    66 C    1.172
    66   6 C    3.959 --    67 C    1.651    65 C    1.172   107 H    0.975
    67   6 C    3.961 --    66 C    1.651    68 C    1.174   108 H    0.973
    68   6 C    3.921 --    70 C    1.315    69 N    1.225    67 C    1.174
    69   7 N    3.379 --    68 C    1.225    65 C    1.209    63 Fe   0.666
    70   6 C    3.922 --    80 C    1.333    68 C    1.315    71 C    1.025
    71   6 C    3.988 --    72 C    1.409    79 C    1.388    70 C    1.025
                            77 C    0.103
    72   6 C    3.983 --    71 C    1.409    73 C    1.396   109 H    0.968
                            78 C    0.104
    73   6 C    3.988 --    72 C    1.396    77 C    1.392    74 C    1.004
                            79 C    0.100
    74   6 C    3.836 --    76 O    1.693    75 O    1.090    73 C    1.004
    75   8 O    2.099 --    74 C    1.090   110 H    0.838    76 O    0.129
    76   8 O    1.962 --    74 C    1.693    75 O    0.129
    77   6 C    3.987 --    78 C    1.448    73 C    1.392   111 H    0.970
                            71 C    0.103
    78   6 C    3.994 --    77 C    1.448    79 C    1.441   112 H    0.972
                            72 C    0.104
    79   6 C    3.987 --    78 C    1.441    71 C    1.388   113 H    0.973
                            73 C    0.100
    80   6 C    3.918 --    70 C    1.333    83 N    1.201    81 C    1.180
    81   6 C    3.956 --    82 C    1.637    80 C    1.180   114 H    0.973
    82   6 C    3.960 --    81 C    1.637    84 C    1.189   115 H    0.973
    83   7 N    3.379 --    84 C    1.246    80 C    1.201    63 Fe   0.661
    84   6 C    3.904 --    85 C    1.251    83 N    1.246    82 C    1.189
    85   6 C    3.920 --    84 C    1.251    86 C    1.250   128 C    1.203
    86   6 C    3.904 --    85 C    1.250    90 N    1.246    87 C    1.189
    87   6 C    3.960 --    88 C    1.637    86 C    1.189   116 H    0.973
    88   6 C    3.956 --    87 C    1.637    89 C    1.180   117 H    0.973
    89   6 C    3.918 --    91 C    1.333    90 N    1.201    88 C    1.180
    90   7 N    3.378 --    86 C    1.246    89 C    1.201    63 Fe   0.657
    91   6 C    3.922 --    89 C    1.333   101 C    1.315    92 C    1.025
    92   6 C    3.988 --   100 C    1.406    93 C    1.389    91 C    1.025
                            95 C    0.103
    93   6 C    3.987 --    94 C    1.440    92 C    1.389   118 H    0.973
                            96 C    0.100
    94   6 C    3.994 --    95 C    1.451    93 C    1.440   119 H    0.972
                           100 C    0.104
    95   6 C    3.986 --    94 C    1.451    96 C    1.388   120 H    0.969
                            92 C    0.103
    96   6 C    3.988 --   100 C    1.400    95 C    1.388    97 C    1.004
                            93 C    0.100
    97   6 C    3.836 --    99 O    1.693    98 O    1.090    96 C    1.004
    98   8 O    2.099 --    97 C    1.090   121 H    0.838    99 O    0.129
    99   8 O    1.961 --    97 C    1.693    98 O    0.129
   100   6 C    3.985 --    92 C    1.406    96 C    1.400   122 H    0.969
                            94 C    0.104
   101   6 C    3.921 --    91 C    1.315   105 N    1.225   102 C    1.174
   102   6 C    3.961 --   103 C    1.650   101 C    1.174   123 H    0.973
   103   6 C    3.959 --   102 C    1.650   104 C    1.173   124 H    0.975
   104   6 C    3.923 --    64 C    1.362   105 N    1.210   103 C    1.173
   105   7 N    3.380 --   101 C    1.225   104 C    1.210    63 Fe   0.669
   106   1 H    1.000 --    64 C    0.970
   107   1 H    0.997 --    66 C    0.975
   108   1 H    1.003 --    67 C    0.973
   109   1 H    1.006 --    72 C    0.968
   110   1 H    0.872 --    75 O    0.838
   111   1 H    1.005 --    77 C    0.970
   112   1 H    1.001 --    78 C    0.972
   113   1 H    1.004 --    79 C    0.973
   114   1 H    1.004 --    81 C    0.973
   115   1 H    1.002 --    82 C    0.973
   116   1 H    1.002 --    87 C    0.973
   117   1 H    1.004 --    88 C    0.973
   118   1 H    1.004 --    93 C    0.973
   119   1 H    1.001 --    94 C    0.972
   120   1 H    1.005 --    95 C    0.969
   121   1 H    0.872 --    98 O    0.838
   122   1 H    1.007 --   100 C    0.969
   123   1 H    1.004 --   102 C    0.973
   124   1 H    0.997 --   103 C    0.975
   125   6 C    3.922 --   126 C    2.449   127 C    1.326
   126   6 C    3.914 --   125 C    2.449    23 C    1.203   128 C    0.196
   127   6 C    3.922 --   128 C    2.448   125 C    1.326
   128   6 C    3.914 --   127 C    2.448    85 C    1.203   126 C    0.196
 ---------------------------------------------------------------------------

           -------------------------------------------------
          | TOTAL ENERGY             -241.795153167985 Eh   |
          | GRADIENT NORM               0.000765232068 Eh/α |
          | HOMO-LUMO GAP               0.085714279837 eV   |
           -------------------------------------------------

 * finished run on 2022/07/29 at 16:30:00.838
