   * xtb version 6.5.1 (b24c23e) compiled by 'conda@728c89f4b128' on 2022-07-12
          program call               : xtb Cu_BSA_C2_3.xyz --gfn 1 --opt -T 48

   ID    Z sym.   atoms
    1   29 Cu     1, 65, 133
    2    6 C      2-6, 8-12, 17-21, 23-28, 30-34, 39-44, 66-70, 72-76, 81-85,
                  87-92, 94-98, 103-108, 129-132, 134-138, 140-144, 149-153,
                  155-160, 162-166, 171-176
    3    7 N      7, 22, 29, 45, 71, 86, 93, 109, 139, 154, 161, 177
    4   16 S      13, 35, 77, 99, 145, 167
    5    8 O      14-16, 36-38, 78-80, 100-102, 146-148, 168-170
    6    1 H      46-64, 110-128, 178-195

          :  Hamiltonian                  GFN1-xTB          :
 * total energy  :  -398.9537227 Eh     change        0.3783498E-08 Eh
 * total energy  :  -399.1538815 Eh     change       -0.2001587E+00 Eh
 * total energy  :  -399.3000911 Eh     change       -0.1462096E+00 Eh
 * total energy  :  -399.3687530 Eh     change       -0.6866188E-01 Eh
 * total energy  :  -399.4075043 Eh     change       -0.3875128E-01 Eh
 * total energy  :  -399.4298743 Eh     change       -0.2236999E-01 Eh
 * total energy  :  -399.4490505 Eh     change       -0.1917628E-01 Eh
 * total energy  :  -399.4649088 Eh     change       -0.1585827E-01 Eh
 * total energy  :  -399.4783940 Eh     change       -0.1348520E-01 Eh
 * total energy  :  -399.4896234 Eh     change       -0.1122937E-01 Eh
 * total energy  :  -399.5550807 Eh     change       -0.9484519E-05 Eh
 * total energy  :  -399.5550912 Eh     change       -0.1048826E-04 Eh
 * total energy  :  -399.5551028 Eh     change       -0.1156562E-04 Eh
 * total energy  :  -399.5551161 Eh     change       -0.1332274E-04 Eh
 * total energy  :  -399.5551321 Eh     change       -0.1594702E-04 Eh
 * total energy  :  -399.5551521 Eh     change       -0.2007034E-04 Eh
 * total energy  :  -399.5551762 Eh     change       -0.2411835E-04 Eh
 * total energy  :  -399.5552044 Eh     change       -0.2818529E-04 Eh
 * total energy  :  -399.5552092 Eh     change       -0.4797088E-05 Eh
   *** GEOMETRY OPTIMIZATION CONVERGED AFTER 152 ITERATIONS ***

 final structure:
================
195
 xtb: 6.5.1 (b24c23e)
Cu          36.57258125945270        0.00431746186606       -0.00194161493178
C           33.16793970962672       -0.01420592135361        0.00988344033992
C           33.79766990722221       -0.22970238417187        1.22632613420572
C           33.11867451203957       -0.49904242105607        2.46188671571993
C           34.07264577227158       -0.63613187620426        3.41524238573310
C           35.34401849684663       -0.43787592553065        2.77235008947095
N           35.14630211512964       -0.20670679780545        1.44168303278350
C           36.58544945646984       -0.48402942834853        3.41040363253662
C           36.59353365329650       -0.71360224223547        4.87596000726211
C           35.98735831719720        0.20261319754341        5.73892330204226
C           35.99212011223443       -0.01076219440210        7.10760529159769
C           36.60352168179639       -1.15205268944720        7.60049909209578
S           36.61658077595850       -1.42699812632562        9.33184383422984
O           36.44726610105648       -0.19295720196261       10.03983993719677
O           35.23925390638435       -2.28062594870210        9.44641298410540
O           37.69903368571841       -2.28906558007613        9.70756955284028
C           37.21541637456249       -2.07756455216206        6.77065979148470
C           37.20936480574207       -1.85115118461616        5.40431534660927
C           37.82136846642659       -0.33557193730992        2.77648801025034
C           39.09196947891292       -0.30986690729417        3.44529217146819
C           40.04192046076157       -0.15835275195338        2.48838486543638
N           38.01560056975720       -0.18060397348214        1.43102364579709
C           39.35975273861911       -0.08421907528445        1.23064730170100
C           39.99899383243510        0.02284677376639       -0.01346560474311
C           39.35035738605549        0.12293630837911       -1.25312170980952
C           40.02284647015727        0.20424898110344       -2.51551706597098
C           39.06460841145667        0.34608358586486       -3.46575467333697
C           37.79839758458859        0.35841648989513       -2.78820505442729
N           38.00372125784889        0.20481131495297       -1.44428883153601
C           36.55663102313966        0.49523388677230       -3.41390284434277
C           36.55405532117069        0.73238868401415       -4.87825312797358
C           35.94416917734507       -0.17899260940993       -5.74383955062797
C           35.93772141482916        0.04532197407460       -7.11077055889440
C           36.54511583493445        1.19044956956314       -7.59997665380779
S           36.52545775703276        1.48838820789657       -9.32743951644832
O           36.72063275041477        2.88033137162623       -9.60967440966237
O           37.89143855234741        0.70140185640824       -9.71926252238910
O           35.42240892116934        0.81331336205379       -9.94466097292828
C           37.15432738496706        2.11478330388607       -6.76699640988565
C           37.15806558642504        1.87829365881531       -5.40233882742570
C           35.31999631369622        0.43452090656609       -2.76767174199919
C           34.04184931106264        0.62051091728100       -3.40100753197341
C           33.09628732685721        0.47176414821269       -2.44115490577404
C           33.78690289459619        0.20795509647888       -1.21082589899055
N           35.13415304444885        0.19904438507361       -1.43596897417496
H           32.08292208830124       -0.01945348317057        0.01377661510978
H           32.04858152555656       -0.57951260288235        2.56963157286034
H           33.93558449775131       -0.86169336779682        4.46053513987610
H           35.52471293495101        1.09486721397680        5.33352565153644
H           35.53460083648361        0.69796078088633        7.78636114230945
H           35.15115886951440       -2.65444603879757       10.33161941907720
H           37.68940489947578       -2.95586386614492        7.19058063571495
H           37.67336816640547       -2.56759975805149        4.73647015134950
H           39.23403284371251       -0.38459373906737        4.51123744625437
H           41.11117432531306       -0.09763074074127        2.61377596687917
H           41.09183902955937        0.15463013243933       -2.64813384714456
H           39.19829109193195        0.42213045243460       -4.53271893360183
H           35.48447663846761       -1.07439701821612       -5.34202658155383
H           35.46639566301179       -0.65337285737249       -7.79050198094164
H           38.09911206038093        0.83883953620089      -10.65153448990449
H           37.60942721901557        3.00526639290503       -7.18210599854444
H           37.61776925561826        2.59504154363427       -4.73185574505526
H           33.89440462181112        0.84654380431520       -4.44474782712194
H           32.02466039490923        0.54121535639965       -2.54097096901108
Cu          58.37273615451006        0.00395760661087       -0.04206315269856
C           61.77849786918338        0.00062066545651       -0.07309870027302
C           61.14306807999426        0.05967275723701       -1.30395471617074
C           61.81797320891032        0.08806916933849       -2.57031232098321
C           60.85943891634715        0.13192473855612       -3.52788069149303
C           59.58893638585597        0.13864859329784       -2.85378549671473
N           59.79221739940787        0.09187374272552       -1.50483256379130
C           58.34412146350147        0.14961973564004       -3.48653843035561
C           58.33110450798871        0.23439181259269       -4.96797182819687
C           58.85434511568035        1.35979155180889       -5.60948424789309
C           58.83422700164236        1.45511533985319       -6.99117647914116
C           58.29182871645656        0.41034787913607       -7.72160723743163
S           58.24921313967987        0.53113444685356       -9.47009767352735
O           58.31430361874493        1.90179392911425       -9.88253620258357
O           59.67749332740806       -0.17207934582877       -9.79206052546964
O           57.21692532210545       -0.30000020450292      -10.01717918300430
C           57.76779990641100       -0.71946849188886       -7.11459129581156
C           57.78871765480069       -0.80180343570640       -5.73198528796835
C           57.11001776796718        0.09491606217355       -2.83503128403210
C           55.83169189436055        0.15094472700809       -3.48715942911770
C           54.88673376889832        0.10243866053838       -2.51497786963639
N           56.92387598648715        0.02155857567708       -1.48093924351327
C           55.57913319851318        0.02849573505487       -1.26286050592593
C           54.94705711661739        0.00562751801499       -0.01086786300812
C           55.60153392758914       -0.01804032331121        1.22944658430120
C           54.93214557104623       -0.08983860415644        2.49412597584954
C           55.89481658206866       -0.13745666251136        3.44891900045494
C           57.16094417640886       -0.08383504955796        2.77329173893447
N           56.95007130205707       -0.01233851714242        1.42276534868789
C           58.40658233971462       -0.13906616405708        3.40229276901210
C           58.42082111461929       -0.22061131984355        4.88403411248447
C           58.95437352925290       -1.34561899977775        5.51790118869596
C           58.96655040259625       -1.43470727842379        6.89994517465574
C           58.44264783523740       -0.38591894807482        7.63841348300676
S           58.46744705109276       -0.48993339777032        9.38827237089408
O           58.34065611771489        0.80976056646827        9.97876487409589
O           57.06464551835524       -1.28200874339879        9.59663729384379
O           59.53096013442791       -1.34238956544397        9.83184627074186
C           57.91380460460705        0.74557703585325        7.03920586359375
C           57.90313070962239        0.82210001686249        5.65594872868010
C           59.63973287227372       -0.13098475636464        2.74710947427073
C           60.92241194917869       -0.12649081724759        3.39790752876411
C           61.86337378453649       -0.08594370552916        2.42302021944583
C           61.16552862013949       -0.05680579721114        1.16913009073816
N           59.81848848970493       -0.08608768986038        1.39459917155317
H           62.86347939878208       -0.00057594966416       -0.08302916254239
H           62.88896068641561        0.06734813194440       -2.69575198472355
H           60.99256810335723        0.14452097712281       -4.59766949566896
H           59.26231738067700        2.17149731527113       -5.01849714529226
H           59.22519141930834        2.32842564262122       -7.49794956293386
H           59.77143518542091       -0.31718235500128      -10.74139485227904
H           57.34740990131439       -1.51538115122162       -7.71641121870270
H           57.39228949214399       -1.68101674232615       -5.23767568305558
H           55.68008572205316        0.23225563208947       -4.55124090309321
H           53.81437907245227        0.12631764972330       -2.62519727281266
H           53.86191605781426       -0.11277915939007        2.62372168398356
H           55.76327166659763       -0.21628268973238        4.51589011959249
H           59.34918853409201       -2.15947959806218        4.92097489629439
H           59.37770716337268       -2.30167045090055        7.40161879339830
H           56.90501215580905       -1.43561301173667       10.53582881135987
H           57.52409646308200        1.55214413751309        7.64745307842784
H           57.50473320006366        1.70364096070468        5.16739934144607
H           61.07513444265442       -0.13835505844976        4.46505612456957
H           62.93650574816694       -0.06764809025962        2.52887006079918
C           41.41325182904650        0.02946567455591       -0.01577241038313
C           42.62814608242350        0.03378373832592       -0.00673967544845
C           52.31797099168374        0.01200357693850        0.00841795003096
C           53.53289349485243        0.00687747360640        0.00015550331597
Cu          47.47454440424431        0.02282880176020        0.00227443600702
C           44.04217306884053        0.03148347230431       -0.00365777203995
C           44.68681600012104        0.94357116639309        0.84564416872405
C           44.01001200183798        1.85519054009075        1.71989712568982
C           44.96599013748286        2.59550135455507        2.33580989475031
C           46.23456434098171        2.14205644487606        1.83799058028645
N           46.03255194377485        1.12910308309308        0.94154675610834
C           47.47583902764790        2.64850147581781        2.23095411368039
C           47.47032668430288        3.81307953618778        3.15081258048322
C           48.03687464059798        3.72092951450334        4.42422962755775
C           48.03453011433455        4.81424894204205        5.27508430314423
C           47.46367654147140        5.99801668799364        4.83636700117965
S           47.47236606836154        7.39096505624367        5.90121331936390
O           47.31131839271875        8.59940501775834        5.14868283349523
O           46.08996794116717        7.08958534336021        6.69855297148691
O           48.54801659871882        7.31034129167485        6.84581162131226
C           46.89761119999095        6.12130749390421        3.57801901579445
C           46.90079453822720        5.02033208195516        2.73783983388966
C           48.71741242854334        2.16152892765765        1.81698369932658
C           49.98911707430705        2.71006513119712        2.19788937932945
C           50.94297403232056        1.96463799506003        1.58532768169166
N           48.91653720859208        1.10503615420783        0.97030466607528
C           50.26191571384862        0.96641677737213        0.81489343151141
C           50.90403313699577        0.01475362914653        0.00803282413077
C           50.25975794146772       -0.93398568827732       -0.80073765140096
C           50.93874740412954       -1.93572765544909       -1.56833154573397
C           49.98360079712492       -2.67760243648162       -2.18311346714573
C           48.71299303254196       -2.12296604585100       -1.80727629582224
N           48.91418890014781       -1.06683131312361       -0.96061637072209
C           47.47030480890668       -2.60574284011660       -2.22386741753224
C           47.46272671913022       -3.77275033298914       -3.13992873427503
C           48.05041168583840       -3.69369646262171       -4.40479562758400
C           48.05197351456332       -4.79200381388338       -5.24917471841494
C           47.46167447365804       -5.96741897079645       -4.81370046590863
S           47.48088814258246       -7.36928841775459       -5.86647505545448
O           47.31226565040165       -8.57077463325157       -5.10443778757948
O           46.10698406964976       -7.07707641437072       -6.68217566287087
O           48.56634428991257       -7.29694676740604       -6.80050769560275
C           46.87115168628746       -6.07687701836271       -3.56525769227717
C           46.87215828218759       -4.97148839957628       -2.73104993557643
C           46.23011532745234       -2.09334919022198       -1.83456496648669
C           44.96066848916423       -2.54167407999600       -2.33489629077813
C           44.00659176077633       -1.79540882459088       -1.72327050283483
C           44.68536201697422       -0.88503576667078       -0.84933922316260
N           46.03042781147463       -1.07737347953044       -0.94111264686654
H           42.94021225511696        1.91142717584377        1.84298165621906
H           44.82955100679195        3.36978761329139        3.07333937557632
H           48.46936181279003        2.78287969666473        4.75209181586194
H           48.47227434402107        4.75494751054465        6.26365855389776
H           46.00976867645718        7.67567544617567        7.46092246094401
H           46.46974229733028        7.06478543576036        3.26323522242025
H           46.47338778733949        5.09788558813666        1.74490784692509
H           50.13054630934734        3.56331490606734        2.84122434140908
H           52.01393219112531        2.08030334603549        1.63444725125787
H           52.00927229410354       -2.05640324188095       -1.61420163382664
H           50.12415510512109       -3.53239273785847       -2.82453106819727
H           48.49754101195875       -2.76198151394029       -4.73106969835793
H           48.50824490271264       -4.74303661137519       -6.22991022091720
H           46.04242188054599       -7.66311818024752       -7.44604384549787
H           46.42726791497608       -7.01373410123208       -3.25287986765664
H           46.42760761764059       -5.03946335547801       -1.74495362815342
H           44.82180130353301       -3.31672363945676       -3.07113898714893
H           42.93686802634617       -1.84746985873943       -1.84869887414441

          :  Hamiltonian                  GFN1-xTB          :
         :: total energy            -399.555209221908 Eh    ::
         :: gradient norm              0.000465878376 Eh/a0 ::
         :: HOMO-LUMO gap              0.000999333247 eV    ::
         :: SCC energy              -404.635843051418 Eh    ::
         :: repulsion energy           5.265508985152 Eh    ::

    * Orbital Energies and Occupations

         #    Occupation            Energy/Eh            Energy/eV
      -------------------------------------------------------------
         1        2.0000           -1.0372704             -28.2256
       ...           ...                  ...                  ...
       335        2.0000           -0.4270998             -11.6220
       336        2.0000           -0.4270348             -11.6202
       337        2.0000           -0.4263472             -11.6015
       338        2.0000           -0.4262730             -11.5995
       339        2.0000           -0.4262117             -11.5978
       340        2.0000           -0.4150730             -11.2947
       341        2.0000           -0.4150211             -11.2933
       342        2.0000           -0.4147750             -11.2866
       343        2.0000           -0.4129756             -11.2376
       344        2.0000           -0.4075650             -11.0904
       345        2.0000           -0.4002067             -10.8902
       346        1.0392           -0.3746803             -10.1956
       347        0.9890           -0.3745729             -10.1926 (HOMO)
       348        0.9718           -0.3745362             -10.1916 (LUMO)
       349                         -0.3572261              -9.7206
       350                         -0.3494791              -9.5098
       351                         -0.3492267              -9.5029
       352                         -0.3491288              -9.5003
       353                         -0.3489871              -9.4964
       354                         -0.3422514              -9.3131
       355                         -0.3217752              -8.7559
       356                         -0.3186145              -8.6699
       357                         -0.3174295              -8.6377
       358                         -0.3101665              -8.4401
       ...                                ...                  ...
       713                          1.3255150              36.0691
      -------------------------------------------------------------
                  HL-Gap            0.0000367 Eh            0.0010 eV

Wiberg/Mayer (AO) data.
largest (>0.10) Wiberg bond orders for each atom

     #   Z sym  total        # sym  WBO       # sym  WBO       # sym  WBO
 ---------------------------------------------------------------------------
     1  29 Cu   2.189 --    45 N    0.506     7 N    0.506    29 N    0.502
                            22 N    0.502
     2   6 C    3.934 --    44 C    1.363     3 C    1.362    46 H    0.971
     3   6 C    3.915 --     2 C    1.362     7 N    1.229     4 C    1.169
     4   6 C    3.956 --     5 C    1.659     3 C    1.169    47 H    0.975
     5   6 C    3.958 --     4 C    1.659     6 C    1.169    48 H    0.973
     6   6 C    3.915 --     8 C    1.321     7 N    1.239     5 C    1.169
     7   7 N    3.245 --     6 C    1.239     3 C    1.229     1 Cu   0.506
     8   6 C    3.934 --    19 C    1.322     6 C    1.321     9 C    1.029
     9   6 C    3.986 --    10 C    1.391    18 C    1.390     8 C    1.029
    10   6 C    3.987 --    11 C    1.449     9 C    1.391    49 H    0.971
                            17 C    0.106
    11   6 C    3.989 --    10 C    1.449    12 C    1.407    50 H    0.967
                            18 C    0.106
    12   6 C    3.930 --    11 C    1.407    17 C    1.407    13 S    0.754
    13  16 S    5.265 --    14 O    1.723    16 O    1.715    15 O    1.013
                            12 C    0.754
    14   8 O    2.082 --    13 S    1.723    16 O    0.139
    15   8 O    2.087 --    13 S    1.013    51 H    0.828
    16   8 O    2.074 --    13 S    1.715    14 O    0.139
    17   6 C    3.989 --    18 C    1.451    12 C    1.407    52 H    0.967
                            10 C    0.106
    18   6 C    3.987 --    17 C    1.451     9 C    1.390    53 H    0.971
                            11 C    0.106
    19   6 C    3.910 --     8 C    1.322    22 N    1.228    20 C    1.177
    20   6 C    3.956 --    21 C    1.646    19 C    1.177    54 H    0.973
    21   6 C    3.957 --    20 C    1.646    23 C    1.184    55 H    0.973
    22   7 N    3.248 --    23 C    1.249    19 C    1.228     1 Cu   0.502
    23   6 C    3.906 --    24 C    1.275    22 N    1.249    21 C    1.184
    24   6 C    3.940 --    25 C    1.275    23 C    1.275   129 C    1.154
    25   6 C    3.906 --    24 C    1.275    29 N    1.248    26 C    1.184
    26   6 C    3.957 --    27 C    1.645    25 C    1.184    56 H    0.973
    27   6 C    3.956 --    26 C    1.645    28 C    1.177    57 H    0.973
    28   6 C    3.910 --    30 C    1.321    29 N    1.229    27 C    1.177
    29   7 N    3.248 --    25 C    1.248    28 C    1.229     1 Cu   0.502
    30   6 C    3.934 --    41 C    1.322    28 C    1.321    31 C    1.030
    31   6 C    3.986 --    32 C    1.391    40 C    1.390    30 C    1.030
    32   6 C    3.987 --    33 C    1.450    31 C    1.391    58 H    0.971
                            39 C    0.106
    33   6 C    3.989 --    32 C    1.450    34 C    1.407    59 H    0.967
                            40 C    0.106
    34   6 C    3.930 --    33 C    1.407    39 C    1.407    35 S    0.754
    35  16 S    5.264 --    38 O    1.722    36 O    1.717    37 O    1.012
                            34 C    0.754
    36   8 O    2.076 --    35 S    1.717    38 O    0.139
    37   8 O    2.087 --    35 S    1.012    60 H    0.828
    38   8 O    2.080 --    35 S    1.722    36 O    0.139
    39   6 C    3.989 --    40 C    1.450    34 C    1.407    61 H    0.967
                            32 C    0.106
    40   6 C    3.987 --    39 C    1.450    31 C    1.390    62 H    0.971
                            33 C    0.106
    41   6 C    3.915 --    30 C    1.322    45 N    1.239    42 C    1.169
    42   6 C    3.958 --    43 C    1.659    41 C    1.169    63 H    0.973
    43   6 C    3.956 --    42 C    1.659    44 C    1.168    64 H    0.975
    44   6 C    3.915 --     2 C    1.363    45 N    1.229    43 C    1.168
    45   7 N    3.245 --    41 C    1.239    44 C    1.229     1 Cu   0.506
    46   1 H    1.001 --     2 C    0.971
    47   1 H    0.997 --     4 C    0.975
    48   1 H    1.003 --     5 C    0.973
    49   1 H    1.003 --    10 C    0.971
    50   1 H    0.999 --    11 C    0.967
    51   1 H    0.854 --    15 O    0.828
    52   1 H    0.999 --    17 C    0.967
    53   1 H    1.003 --    18 C    0.971
    54   1 H    1.003 --    20 C    0.973
    55   1 H    1.002 --    21 C    0.973
    56   1 H    1.002 --    26 C    0.973
    57   1 H    1.003 --    27 C    0.973
    58   1 H    1.003 --    32 C    0.971
    59   1 H    0.999 --    33 C    0.967
    60   1 H    0.854 --    37 O    0.828
    61   1 H    1.000 --    39 C    0.967
    62   1 H    1.003 --    40 C    0.971
    63   1 H    1.003 --    42 C    0.973
    64   1 H    0.997 --    43 C    0.975
    65  29 Cu   2.196 --   109 N    0.507    71 N    0.507    86 N    0.504
                            93 N    0.504
    66   6 C    3.934 --   108 C    1.363    67 C    1.363   110 H    0.971
    67   6 C    3.915 --    66 C    1.363    71 N    1.228    68 C    1.169
    68   6 C    3.956 --    69 C    1.659    67 C    1.169   111 H    0.975
    69   6 C    3.958 --    68 C    1.659    70 C    1.170   112 H    0.973
    70   6 C    3.915 --    72 C    1.321    71 N    1.239    69 C    1.170
    71   7 N    3.246 --    70 C    1.239    67 C    1.228    65 Cu   0.507
    72   6 C    3.934 --    83 C    1.323    70 C    1.321    73 C    1.028
    73   6 C    3.986 --    74 C    1.391    82 C    1.391    72 C    1.028
    74   6 C    3.987 --    75 C    1.450    73 C    1.391   113 H    0.971
                            81 C    0.106
    75   6 C    3.989 --    74 C    1.450    76 C    1.407   114 H    0.967
                            82 C    0.106
    76   6 C    3.930 --    75 C    1.407    81 C    1.407    77 S    0.754
    77  16 S    5.265 --    78 O    1.723    80 O    1.716    79 O    1.013
                            76 C    0.754
    78   8 O    2.081 --    77 S    1.723    80 O    0.139
    79   8 O    2.087 --    77 S    1.013   115 H    0.828
    80   8 O    2.075 --    77 S    1.716    78 O    0.139
    81   6 C    3.989 --    82 C    1.450    76 C    1.407   116 H    0.967
                            74 C    0.106
    82   6 C    3.987 --    81 C    1.450    73 C    1.391   117 H    0.971
                            75 C    0.106
    83   6 C    3.910 --    72 C    1.323    86 N    1.227    84 C    1.177
    84   6 C    3.956 --    85 C    1.646    83 C    1.177   118 H    0.973
    85   6 C    3.957 --    84 C    1.646    87 C    1.183   119 H    0.973
    86   7 N    3.249 --    87 C    1.249    83 C    1.227    65 Cu   0.504
    87   6 C    3.906 --    88 C    1.275    86 N    1.249    85 C    1.183
    88   6 C    3.941 --    89 C    1.275    87 C    1.275   132 C    1.154
    89   6 C    3.906 --    88 C    1.275    93 N    1.249    90 C    1.183
    90   6 C    3.957 --    91 C    1.646    89 C    1.183   120 H    0.973
    91   6 C    3.956 --    90 C    1.646    92 C    1.177   121 H    0.973
    92   6 C    3.910 --    94 C    1.323    93 N    1.227    91 C    1.177
    93   7 N    3.249 --    89 C    1.249    92 C    1.227    65 Cu   0.504
    94   6 C    3.934 --    92 C    1.323   105 C    1.321    95 C    1.027
    95   6 C    3.986 --   104 C    1.392    96 C    1.391    94 C    1.027
    96   6 C    3.987 --    97 C    1.451    95 C    1.391   122 H    0.971
                           103 C    0.106
    97   6 C    3.989 --    96 C    1.451    98 C    1.407   123 H    0.967
                           104 C    0.106
    98   6 C    3.931 --   103 C    1.408    97 C    1.407    99 S    0.754
    99  16 S    5.265 --   100 O    1.720   102 O    1.719   101 O    1.012
                            98 C    0.754
   100   8 O    2.079 --    99 S    1.720   102 O    0.139
   101   8 O    2.087 --    99 S    1.012   124 H    0.828
   102   8 O    2.078 --    99 S    1.719   100 O    0.139
   103   6 C    3.989 --   104 C    1.449    98 C    1.408   125 H    0.967
                            96 C    0.106
   104   6 C    3.987 --   103 C    1.449    95 C    1.392   126 H    0.971
                            97 C    0.106
   105   6 C    3.915 --    94 C    1.321   109 N    1.239   106 C    1.169
   106   6 C    3.958 --   107 C    1.659   105 C    1.169   127 H    0.973
   107   6 C    3.956 --   106 C    1.659   108 C    1.168   128 H    0.975
   108   6 C    3.915 --    66 C    1.363   109 N    1.228   107 C    1.168
   109   7 N    3.246 --   105 C    1.239   108 C    1.228    65 Cu   0.507
   110   1 H    1.001 --    66 C    0.971
   111   1 H    0.997 --    68 C    0.975
   112   1 H    1.003 --    69 C    0.973
   113   1 H    1.003 --    74 C    0.971
   114   1 H    0.999 --    75 C    0.967
   115   1 H    0.854 --    79 O    0.828
   116   1 H    0.999 --    81 C    0.967
   117   1 H    1.003 --    82 C    0.971
   118   1 H    1.003 --    84 C    0.973
   119   1 H    1.002 --    85 C    0.973
   120   1 H    1.002 --    90 C    0.973
   121   1 H    1.003 --    91 C    0.973
   122   1 H    1.003 --    96 C    0.971
   123   1 H    0.999 --    97 C    0.967
   124   1 H    0.854 --   101 O    0.828
   125   1 H    1.000 --   103 C    0.967
   126   1 H    1.003 --   104 C    0.971
   127   1 H    1.003 --   106 C    0.973
   128   1 H    0.997 --   107 C    0.975
   129   6 C    3.930 --   130 C    2.596    24 C    1.154
   130   6 C    3.932 --   129 C    2.596   134 C    1.154
   131   6 C    3.933 --   132 C    2.596   156 C    1.155
   132   6 C    3.931 --   131 C    2.596    88 C    1.154
   133  29 Cu   2.152 --   161 N    0.496   154 N    0.496   139 N    0.496
                           177 N    0.496
   134   6 C    3.932 --   135 C    1.274   176 C    1.273   130 C    1.154
   135   6 C    3.907 --   134 C    1.274   139 N    1.252   136 C    1.183
   136   6 C    3.957 --   137 C    1.646   135 C    1.183   178 H    0.973
   137   6 C    3.957 --   136 C    1.646   138 C    1.177   179 H    0.973
   138   6 C    3.909 --   140 C    1.321   139 N    1.230   137 C    1.177
   139   7 N    3.242 --   135 C    1.252   138 C    1.230   133 Cu   0.496
   140   6 C    3.930 --   151 C    1.324   138 C    1.321   141 C    1.028
   141   6 C    3.986 --   142 C    1.392   150 C    1.391   140 C    1.028
   142   6 C    3.987 --   143 C    1.450   141 C    1.392   180 H    0.971
                           149 C    0.106
   143   6 C    3.989 --   142 C    1.450   144 C    1.407   181 H    0.967
                           150 C    0.106
   144   6 C    3.931 --   143 C    1.407   149 C    1.407   145 S    0.754
   145  16 S    5.266 --   146 O    1.724   148 O    1.716   147 O    1.014
                           144 C    0.754
   146   8 O    2.082 --   145 S    1.724   148 O    0.139
   147   8 O    2.088 --   145 S    1.014   182 H    0.827
   148   8 O    2.074 --   145 S    1.716   146 O    0.139
   149   6 C    3.989 --   150 C    1.450   144 C    1.407   183 H    0.967
                           142 C    0.106
   150   6 C    3.987 --   149 C    1.450   141 C    1.391   184 H    0.971
                           143 C    0.106
   151   6 C    3.909 --   140 C    1.324   154 N    1.227   152 C    1.176
   152   6 C    3.957 --   153 C    1.647   151 C    1.176   185 H    0.973
   153   6 C    3.957 --   152 C    1.647   155 C    1.182   186 H    0.974
   154   7 N    3.243 --   155 C    1.253   151 C    1.227   133 Cu   0.496
   155   6 C    3.906 --   156 C    1.273   154 N    1.253   153 C    1.182
   156   6 C    3.933 --   155 C    1.273   157 C    1.273   131 C    1.155
   157   6 C    3.906 --   156 C    1.273   161 N    1.253   158 C    1.182
   158   6 C    3.957 --   159 C    1.647   157 C    1.182   187 H    0.974
   159   6 C    3.957 --   158 C    1.647   160 C    1.176   188 H    0.973
   160   6 C    3.909 --   162 C    1.323   161 N    1.228   159 C    1.176
   161   7 N    3.243 --   157 C    1.253   160 C    1.228   133 Cu   0.496
   162   6 C    3.930 --   160 C    1.323   173 C    1.320   163 C    1.029
   163   6 C    3.986 --   164 C    1.391   172 C    1.390   162 C    1.029
   164   6 C    3.987 --   165 C    1.450   163 C    1.391   189 H    0.971
                           171 C    0.105
   165   6 C    3.989 --   164 C    1.450   166 C    1.407   190 H    0.967
                           172 C    0.106
   166   6 C    3.930 --   165 C    1.407   171 C    1.407   167 S    0.754
   167  16 S    5.265 --   168 O    1.724   170 O    1.715   169 O    1.013
                           166 C    0.754
   168   8 O    2.082 --   167 S    1.724   170 O    0.139
   169   8 O    2.087 --   167 S    1.013   191 H    0.828
   170   8 O    2.074 --   167 S    1.715   168 O    0.139
   171   6 C    3.989 --   172 C    1.450   166 C    1.407   192 H    0.967
                           164 C    0.105
   172   6 C    3.986 --   171 C    1.450   163 C    1.390   193 H    0.971
                           165 C    0.106
   173   6 C    3.909 --   162 C    1.320   177 N    1.230   174 C    1.177
   174   6 C    3.957 --   175 C    1.645   173 C    1.177   194 H    0.973
   175   6 C    3.956 --   174 C    1.645   176 C    1.183   195 H    0.973
   176   6 C    3.907 --   134 C    1.273   177 N    1.252   175 C    1.183
   177   7 N    3.242 --   176 C    1.252   173 C    1.230   133 Cu   0.496
   178   1 H    1.002 --   136 C    0.973
   179   1 H    1.003 --   137 C    0.973
   180   1 H    1.003 --   142 C    0.971
   181   1 H    0.999 --   143 C    0.967
   182   1 H    0.854 --   147 O    0.827
   183   1 H    1.000 --   149 C    0.967
   184   1 H    1.003 --   150 C    0.971
   185   1 H    1.003 --   152 C    0.973
   186   1 H    1.002 --   153 C    0.974
   187   1 H    1.002 --   158 C    0.974
   188   1 H    1.003 --   159 C    0.973
   189   1 H    1.003 --   164 C    0.971
   190   1 H    0.999 --   165 C    0.967
   191   1 H    0.854 --   169 O    0.828
   192   1 H    1.000 --   171 C    0.967
   193   1 H    1.003 --   172 C    0.971
   194   1 H    1.003 --   174 C    0.973
   195   1 H    1.002 --   175 C    0.973
 ---------------------------------------------------------------------------

           -------------------------------------------------
          | TOTAL ENERGY             -399.555209221908 Eh   |
          | GRADIENT NORM               0.000465878376 Eh/α |
          | HOMO-LUMO GAP               0.000999333247 eV   |
           -------------------------------------------------

 * finished run on 2022/07/30 at 13:11:14.288
