   * xtb version 6.5.1 (b24c23e) compiled by 'conda@728c89f4b128' on 2022-07-12
          program call               : xtb Co_BSA_C4_2.xyz --gfn 1 --opt -T 48

   ID    Z sym.   atoms
    1   27 Co     1, 65
    2    6 C      2-6, 8-12, 17-21, 23-28, 30-34, 39-44, 66-70, 72-76, 81-85,
                  87-92, 94-98, 103-108, 129-132
    3    7 N      7, 22, 29, 45, 71, 86, 93, 109
    4   16 S      13, 35, 77, 99
    5    8 O      14-16, 36-38, 78-80, 100-102
    6    1 H      46-64, 110-128
########################################################################
[WARNING] Please study the warnings concerning your input carefully
-1- prog_main_parseArguments: Unknown option '-T' provided
########################################################################

          :  Hamiltonian                  GFN1-xTB          :
 * total energy  :  -267.1870271 Eh     change       -0.1088307E-07 Eh
 * total energy  :  -267.3483394 Eh     change       -0.1613123E+00 Eh
 * total energy  :  -267.4197239 Eh     change       -0.7138449E-01 Eh
 * total energy  :  -267.4512639 Eh     change       -0.3154008E-01 Eh
 * total energy  :  -267.4672413 Eh     change       -0.1597736E-01 Eh
 * total energy  :  -267.4777806 Eh     change       -0.1053930E-01 Eh
 * total energy  :  -267.4844290 Eh     change       -0.6648355E-02 Eh
 * total energy  :  -267.4901689 Eh     change       -0.5739960E-02 Eh
 * total energy  :  -267.4947867 Eh     change       -0.4617805E-02 Eh
 * total energy  :  -267.4975282 Eh     change       -0.2741501E-02 Eh
 * total energy  :  -267.5060247 Eh     change       -0.4943185E-05 Eh
 * total energy  :  -267.5060325 Eh     change       -0.7793813E-05 Eh
 * total energy  :  -267.5060370 Eh     change       -0.4510816E-05 Eh
 * total energy  :  -267.5060443 Eh     change       -0.7306464E-05 Eh
 * total energy  :  -267.5060601 Eh     change       -0.1575660E-04 Eh
 * total energy  :  -267.5060673 Eh     change       -0.7185722E-05 Eh
 * total energy  :  -267.5060724 Eh     change       -0.5175696E-05 Eh
 * total energy  :  -267.5060784 Eh     change       -0.5946877E-05 Eh
 * total energy  :  -267.5060827 Eh     change       -0.4306433E-05 Eh
   *** GEOMETRY OPTIMIZATION CONVERGED AFTER 54 ITERATIONS ***

 final structure:
================
132
 xtb: 6.5.1 (b24c23e)
Co          17.04426424018890        0.06564947132137        0.06524831941698
C           13.67187171617898        0.14109130314467        0.09747517603792
C           14.32403689249424       -0.42197282170010        1.17320310982685
C           13.65651428298514       -0.99742430446233        2.30127740314279
C           14.61055647717096       -1.25856052843598        3.22519353966690
C           15.85876589294356       -0.82973949161758        2.66412979250536
N           15.68060670504443       -0.38523899704408        1.37913307496998
C           17.05333935213147       -0.76777876428682        3.36926455637993
C           17.05768961710823       -1.11653777715222        4.80795780362071
C           16.26547957079701       -0.40109191254588        5.70961106377931
C           16.26878687129560       -0.72246518752823        7.05684657352132
C           17.06638187019452       -1.76977810481500        7.48893729156184
S           17.07950536706374       -2.17768891606624        9.19397363852697
O           16.70838356448478       -1.04688616118304        9.99247503807972
O           15.83718719656028       -3.22431694133921        9.19405556749025
O           18.27222799520501       -2.89501443715344        9.53570228986444
C           17.86385084140252       -2.49619876026899        6.61970546523133
C           17.85755615644267       -2.16239520896776        5.27546048078641
C           18.24242472513456       -0.38398904215853        2.76650397288386
C           19.48776964626605       -0.23956956550137        3.45862993125986
C           20.43716847463745       -0.03219302743555        2.51448105632991
N           18.42028163950896       -0.19895250771081        1.41509656267755
C           19.76828616583414       -0.04182084372579        1.25225421851051
C           20.43484234594854       -0.03642360075119        0.02481288180032
C           19.74434244954396       -0.00873317505556       -1.18896898117881
C           20.38645781796671       -0.05565368662733       -2.46417342478157
C           19.42708656729027        0.18090993326608       -3.39106612749923
C           18.20395015970588        0.38643135282069       -2.67500872331775
N           18.39977323276585        0.19624847822201       -1.32634133366247
C           17.02514053822121        0.83173492749471       -3.25479439160453
C           17.01580159692102        1.17060484392584       -4.69578305589453
C           16.15461840437337        0.50304370598808       -5.57022358982846
C           16.14234569256105        0.81477226190426       -6.91981443274004
C           16.99687689707361        1.80231985493147       -7.38177115784817
S           16.97865710241496        2.21018449943514       -9.08815290950385
O           17.41923939348426        3.55785527510270       -9.30206281563432
O           18.16968450686621        1.22622007198298       -9.58841003472294
O           15.74857662215984        1.78551762828137       -9.68535937661160
C           17.85742144556071        2.48636420383645       -6.53853397577884
C           17.86489854217087        2.16345040096214       -5.19167020413979
C           15.85349798825185        0.97083521830187       -2.52228882598888
C           14.62228849769868        1.47805968221228       -3.05447358384642
C           13.67570868066369        1.27921483231807       -2.10748379549378
C           14.33163343030299        0.66316364819332       -0.99432099950518
N           15.67665102549897        0.53382356475197       -1.23486922996033
H           12.58900294470538        0.17421039576114        0.11071090265632
H           12.59279089252306       -1.16333123779575        2.36153886625060
H           14.49365115194399       -1.69773891595971        4.20263484891803
H           15.65807483440575        0.42255329562254        5.35295524156448
H           15.66785349575176       -0.16734822050117        7.76617896248561
H           15.66802817343231       -3.53959107370226       10.09032933489505
H           18.47946532904913       -3.30513183261152        6.99253020923294
H           18.46623411571672       -2.72461873560412        4.57696924633353
H           19.60795035452189       -0.29037953650824        4.52848017288979
H           21.49825178527993        0.10821406791592        2.64314053364496
H           21.43791555948877       -0.24055681951994       -2.61374388339583
H           19.52802526375203        0.21858599003786       -4.46344441712794
H           15.50226607526834       -0.27445833194561       -5.19013254569138
H           15.47907438993571        0.30374435247683       -7.60622470376428
H           18.53272814729430        1.54146132495536      -10.42539166729103
H           18.50304593602145        3.26180161565307       -6.93141543606535
H           18.52108253829976        2.69551651491742       -4.51282949032367
H           14.51103176411324        1.92454935165182       -4.02923723020899
H           12.62403043250971        1.51426018361620       -2.14295858224330
Co          30.42535285921792        0.08567296213759       -0.03634862147360
C           33.79768580051592        0.16804955121188       -0.03896829870378
C           33.14536049236433        0.04128160942263       -1.24643493286158
C           33.81267617926339       -0.07739767665710       -2.50734923000774
C           32.85844162619592        0.02047202452191       -3.46226644178745
C           31.61033108429214        0.21188711250226       -2.78236661852928
N           31.78871931909337        0.15096571832036       -1.42404808339548
C           30.41575102416157        0.52993524424480       -3.41472650944813
C           30.41139113613337        0.73725486209874       -4.88052812671202
C           31.20314246392868        1.73564419903276       -5.45390825767327
C           31.19982527977631        1.93488807520875       -6.82454124465821
C           30.40277104794479        1.12091087582938       -7.61312335273967
S           30.38953254349608        1.37208488446988       -9.34822067798900
O           30.75937897946440        2.71831552323565       -9.67217927057089
O           31.63279964952540        0.40082309056800       -9.73517195368538
O           29.19732485894500        0.83074259316249       -9.93089176718404
C           29.60580479669937        0.12425898877246       -7.07391960898091
C           29.61200467308555       -0.06224069432771       -5.70145328607645
C           29.22679844585935        0.66449524175632       -2.71276782350613
C           27.98142775722405        1.05466505203043       -3.30230994854512
C           27.03225204502939        0.89912856672637       -2.34800845807697
N           29.04915985900029        0.33743162048674       -1.38847346758017
C           27.70130499332779        0.42372385721177       -1.17878007708754
C           27.03483179396591       -0.02472763690713       -0.03607311778936
C           27.72550767899783       -0.44707529774376        1.10207388263857
C           27.08353944813947       -0.96132969087455        2.27005978931206
C           28.04306881934189       -1.08375057399046        3.21861057316463
C           29.26616933702620       -0.62852489465799        2.62882111858949
N           29.07012071277381       -0.30738985263091        1.30518995676256
C           30.44507030760381       -0.42882394986591        3.33188638551800
C           30.45451589193387       -0.64620889732709        4.79617376701391
C           31.31516805146252       -1.59011572704704        5.36207848997804
C           31.32717751216477       -1.79925383374066        6.73133295185483
C           30.47297403090996       -1.05191030404252        7.52550324993465
S           30.49111808140946       -1.30300713612023        9.26180352668851
O           30.05241494037267       -0.12868465964649        9.95792401137697
O           29.29884209236345       -2.40061739624341        9.36316555402957
O           31.72033588272057       -1.91989685678026        9.66026738377199
C           29.61309788091842       -0.10407585305583        6.99466497557099
C           29.60582059046104        0.09360486167816        5.62381209198218
C           31.61663604141082       -0.02894189977111        2.70242130196596
C           32.84786090690631        0.24624182881602        3.38410099104697
C           33.79420132651686        0.41168003367050        2.43044747499744
C           33.13812619319773        0.25007514546058        1.16857023765846
N           31.79323414948502        0.04041593813336        1.34460115737001
H           34.88054421809605        0.20413501416082       -0.03924011499304
H           34.87640869416516       -0.20916727467513       -2.62469437214681
H           32.97504552366289       -0.02717669271947       -4.53281553474682
H           31.81018167237298        2.36949749636767       -4.81808523346485
H           31.80034074517235        2.71319028581454       -7.27846919838303
H           31.80210317893431        0.43968753917746      -10.68446198103020
H           28.99062319010741       -0.49001382558365       -7.71934669505128
H           29.00362090364430       -0.84303516867855       -5.26020057773963
H           27.86101521164768        1.40245458154297       -4.31530212239574
H           25.97123455906373        1.07761695315154       -2.41545800539093
H           26.03207713296675       -1.18828261135239        2.34101141635654
H           27.94231498707810       -1.44458796056157        4.22918461685566
H           31.96730389435884       -2.17239246286734        4.72160410544686
H           31.98997203832006       -2.52816537506643        7.18037907627057
H           28.94312760766981       -2.42409127952901       10.26005095920763
H           28.96776814685047        0.47165889268774        7.64625000287319
H           28.95012765628123        0.83926366259907        5.18957494193435
H           32.95933636773228        0.30104239872894        4.45483539948438
H           34.84581437556566        0.61744846306558        2.55005638021915
C           23.06031339930760       -0.06071607006799       -0.00467580952649
C           21.83830986774087       -0.05533468759209        0.00970824978769
C           24.40943640427484       -0.05785478257968       -0.01696566221158
C           25.63137825788314       -0.04706850859600       -0.02890473865008

          :  Hamiltonian                  GFN1-xTB          :
         :: total energy            -267.506082684747 Eh    ::
         :: gradient norm              0.000996817525 Eh/a0 ::
         :: HOMO-LUMO gap              0.007185635976 eV    ::
         :: SCC energy              -271.032914185883 Eh    ::
         :: repulsion energy           3.647241073290 Eh    ::

    * Orbital Energies and Occupations

         #    Occupation            Energy/Eh            Energy/eV
      -------------------------------------------------------------
         1        2.0000           -1.0375310             -28.2327
       ...           ...                  ...                  ...
       220        2.0000           -0.4462833             -12.1440
       221        2.0000           -0.4440035             -12.0820
       222        2.0000           -0.4165896             -11.3360
       223        2.0000           -0.4153992             -11.3036
       224        2.0000           -0.4153826             -11.3031
       225        2.0000           -0.4146363             -11.2828
       226        2.0000           -0.4146180             -11.2823
       227        1.9998           -0.4111235             -11.1872
       228        1.9998           -0.4111203             -11.1872
       229        1.9997           -0.4109603             -11.1828
       230        1.9997           -0.4109557             -11.1827
       231        1.9002           -0.4052825             -11.0283
       232        1.1196           -0.4027120             -10.9584 (HOMO)
       233        0.9812           -0.4024480             -10.9512 (LUMO)
       234                         -0.3567846              -9.7086
       235                         -0.3486464              -9.4872
       236                         -0.3486400              -9.4870
       237                         -0.3432838              -9.3412
       238                         -0.3222648              -8.7693
       239                         -0.3193217              -8.6892
       240                         -0.3125240              -8.5042
       241                         -0.3123020              -8.4982
       242                         -0.3105732              -8.4511
       243                         -0.3105429              -8.4503
       ...                                ...                  ...
       482                          1.4988092              40.7847
      -------------------------------------------------------------
                  HL-Gap            0.0002641 Eh            0.0072 eV

Wiberg/Mayer (AO) data.
largest (>0.10) Wiberg bond orders for each atom

     #   Z sym  total        # sym  WBO       # sym  WBO       # sym  WBO
 ---------------------------------------------------------------------------
     1  27 Co   3.050 --     7 N    0.641    45 N    0.639    29 N    0.636
                            22 N    0.633
     2   6 C    3.931 --     3 C    1.366    44 C    1.365    46 H    0.969
     3   6 C    3.922 --     2 C    1.366     7 N    1.199     4 C    1.173
     4   6 C    3.960 --     5 C    1.651     3 C    1.173    47 H    0.975
     5   6 C    3.963 --     4 C    1.651     6 C    1.175    48 H    0.973
     6   6 C    3.921 --     8 C    1.319     7 N    1.212     5 C    1.175
     7   7 N    3.346 --     6 C    1.212     3 C    1.199     1 Co   0.641
     8   6 C    3.932 --    19 C    1.328     6 C    1.319     9 C    1.031
     9   6 C    3.986 --    18 C    1.390    10 C    1.390     8 C    1.031
    10   6 C    3.986 --    11 C    1.450     9 C    1.390    49 H    0.971
                            17 C    0.106
    11   6 C    3.989 --    10 C    1.450    12 C    1.407    50 H    0.967
                            18 C    0.106
    12   6 C    3.930 --    17 C    1.408    11 C    1.407    13 S    0.754
    13  16 S    5.265 --    16 O    1.720    14 O    1.719    15 O    1.013
                            12 C    0.754
    14   8 O    2.078 --    13 S    1.719    16 O    0.139
    15   8 O    2.087 --    13 S    1.013    51 H    0.827
    16   8 O    2.079 --    13 S    1.720    14 O    0.139
    17   6 C    3.989 --    18 C    1.450    12 C    1.408    52 H    0.967
                            10 C    0.106
    18   6 C    3.986 --    17 C    1.450     9 C    1.390    53 H    0.971
                            11 C    0.106
    19   6 C    3.917 --     8 C    1.328    22 N    1.196    20 C    1.181
    20   6 C    3.958 --    21 C    1.637    19 C    1.181    54 H    0.973
    21   6 C    3.961 --    20 C    1.637    23 C    1.190    55 H    0.973
    22   7 N    3.349 --    23 C    1.228    19 C    1.196     1 Co   0.633
    23   6 C    3.903 --    24 C    1.261    22 N    1.228    21 C    1.190
    24   6 C    3.935 --    25 C    1.261    23 C    1.261   130 C    1.188
    25   6 C    3.903 --    24 C    1.261    29 N    1.228    26 C    1.190
    26   6 C    3.961 --    27 C    1.638    25 C    1.190    56 H    0.973
    27   6 C    3.958 --    26 C    1.638    28 C    1.181    57 H    0.973
    28   6 C    3.917 --    30 C    1.330    29 N    1.194    27 C    1.181
    29   7 N    3.347 --    25 C    1.228    28 C    1.194     1 Co   0.636
    30   6 C    3.932 --    28 C    1.330    41 C    1.318    31 C    1.032
    31   6 C    3.986 --    32 C    1.391    40 C    1.389    30 C    1.032
    32   6 C    3.986 --    33 C    1.449    31 C    1.391    58 H    0.971
                            39 C    0.106
    33   6 C    3.989 --    32 C    1.449    34 C    1.408    59 H    0.966
                            40 C    0.106
    34   6 C    3.931 --    33 C    1.408    39 C    1.407    35 S    0.753
    35  16 S    5.269 --    38 O    1.729    36 O    1.713    37 O    1.016
                            34 C    0.753
    36   8 O    2.072 --    35 S    1.713    38 O    0.138
    37   8 O    2.090 --    35 S    1.016    60 H    0.827
    38   8 O    2.087 --    35 S    1.729    36 O    0.138
    39   6 C    3.989 --    40 C    1.451    34 C    1.407    61 H    0.967
                            32 C    0.106
    40   6 C    3.986 --    39 C    1.451    31 C    1.389    62 H    0.971
                            33 C    0.106
    41   6 C    3.921 --    30 C    1.318    45 N    1.213    42 C    1.175
    42   6 C    3.963 --    43 C    1.650    41 C    1.175    63 H    0.973
    43   6 C    3.960 --    42 C    1.650    44 C    1.173    64 H    0.975
    44   6 C    3.922 --     2 C    1.365    45 N    1.200    43 C    1.173
    45   7 N    3.348 --    41 C    1.213    44 C    1.200     1 Co   0.639
    46   1 H    0.999 --     2 C    0.969
    47   1 H    0.997 --     4 C    0.975
    48   1 H    1.003 --     5 C    0.973
    49   1 H    1.003 --    10 C    0.971
    50   1 H    0.999 --    11 C    0.967
    51   1 H    0.854 --    15 O    0.827
    52   1 H    1.000 --    17 C    0.967
    53   1 H    1.003 --    18 C    0.971
    54   1 H    1.003 --    20 C    0.973
    55   1 H    1.001 --    21 C    0.973
    56   1 H    1.001 --    26 C    0.973
    57   1 H    1.003 --    27 C    0.973
    58   1 H    1.003 --    32 C    0.971
    59   1 H    0.999 --    33 C    0.966
    60   1 H    0.854 --    37 O    0.827
    61   1 H    0.999 --    39 C    0.967
    62   1 H    1.003 --    40 C    0.971
    63   1 H    1.003 --    42 C    0.973
    64   1 H    0.997 --    43 C    0.975
    65  27 Co   3.051 --    71 N    0.641   109 N    0.638    93 N    0.636
                            86 N    0.633
    66   6 C    3.931 --    67 C    1.366   108 C    1.365   110 H    0.969
    67   6 C    3.922 --    66 C    1.366    71 N    1.199    68 C    1.173
    68   6 C    3.960 --    69 C    1.651    67 C    1.173   111 H    0.975
    69   6 C    3.963 --    68 C    1.651    70 C    1.175   112 H    0.973
    70   6 C    3.921 --    72 C    1.319    71 N    1.212    69 C    1.175
    71   7 N    3.346 --    70 C    1.212    67 C    1.199    65 Co   0.641
    72   6 C    3.932 --    83 C    1.328    70 C    1.319    73 C    1.031
    73   6 C    3.986 --    82 C    1.390    74 C    1.390    72 C    1.031
    74   6 C    3.986 --    75 C    1.450    73 C    1.390   113 H    0.971
                            81 C    0.106
    75   6 C    3.989 --    74 C    1.450    76 C    1.407   114 H    0.967
                            82 C    0.106
    76   6 C    3.930 --    81 C    1.408    75 C    1.407    77 S    0.754
    77  16 S    5.265 --    80 O    1.720    78 O    1.719    79 O    1.013
                            76 C    0.754
    78   8 O    2.078 --    77 S    1.719    80 O    0.139
    79   8 O    2.087 --    77 S    1.013   115 H    0.827
    80   8 O    2.079 --    77 S    1.720    78 O    0.139
    81   6 C    3.989 --    82 C    1.450    76 C    1.408   116 H    0.967
                            74 C    0.106
    82   6 C    3.986 --    81 C    1.450    73 C    1.390   117 H    0.971
                            75 C    0.106
    83   6 C    3.917 --    72 C    1.328    86 N    1.195    84 C    1.181
    84   6 C    3.958 --    85 C    1.637    83 C    1.181   118 H    0.973
    85   6 C    3.961 --    84 C    1.637    87 C    1.190   119 H    0.973
    86   7 N    3.349 --    87 C    1.228    83 C    1.195    65 Co   0.633
    87   6 C    3.903 --    88 C    1.261    86 N    1.228    85 C    1.190
    88   6 C    3.935 --    89 C    1.261    87 C    1.261   132 C    1.188
    89   6 C    3.903 --    88 C    1.261    93 N    1.228    90 C    1.189
    90   6 C    3.961 --    91 C    1.638    89 C    1.189   120 H    0.973
    91   6 C    3.958 --    90 C    1.638    92 C    1.181   121 H    0.973
    92   6 C    3.917 --    94 C    1.330    93 N    1.194    91 C    1.181
    93   7 N    3.347 --    89 C    1.228    92 C    1.194    65 Co   0.636
    94   6 C    3.932 --    92 C    1.330   105 C    1.317    95 C    1.032
    95   6 C    3.986 --    96 C    1.391   104 C    1.389    94 C    1.032
    96   6 C    3.986 --    97 C    1.449    95 C    1.391   122 H    0.971
                           103 C    0.106
    97   6 C    3.989 --    96 C    1.449    98 C    1.408   123 H    0.966
                           104 C    0.106
    98   6 C    3.931 --    97 C    1.408   103 C    1.407    99 S    0.753
    99  16 S    5.269 --   102 O    1.729   100 O    1.713   101 O    1.016
                            98 C    0.753
   100   8 O    2.072 --    99 S    1.713   102 O    0.138
   101   8 O    2.090 --    99 S    1.016   124 H    0.827
   102   8 O    2.087 --    99 S    1.729   100 O    0.138
   103   6 C    3.989 --   104 C    1.451    98 C    1.407   125 H    0.967
                            96 C    0.106
   104   6 C    3.986 --   103 C    1.451    95 C    1.389   126 H    0.971
                            97 C    0.106
   105   6 C    3.921 --    94 C    1.317   109 N    1.213   106 C    1.175
   106   6 C    3.963 --   107 C    1.650   105 C    1.175   127 H    0.973
   107   6 C    3.960 --   106 C    1.650   108 C    1.174   128 H    0.975
   108   6 C    3.922 --    66 C    1.365   109 N    1.200   107 C    1.174
   109   7 N    3.348 --   105 C    1.213   108 C    1.200    65 Co   0.638
   110   1 H    0.999 --    66 C    0.969
   111   1 H    0.997 --    68 C    0.975
   112   1 H    1.003 --    69 C    0.973
   113   1 H    1.003 --    74 C    0.971
   114   1 H    0.999 --    75 C    0.967
   115   1 H    0.854 --    79 O    0.827
   116   1 H    1.000 --    81 C    0.967
   117   1 H    1.003 --    82 C    0.971
   118   1 H    1.003 --    84 C    0.973
   119   1 H    1.001 --    85 C    0.973
   120   1 H    1.001 --    90 C    0.973
   121   1 H    1.003 --    91 C    0.973
   122   1 H    1.003 --    96 C    0.971
   123   1 H    0.999 --    97 C    0.966
   124   1 H    0.854 --   101 O    0.827
   125   1 H    0.999 --   103 C    0.967
   126   1 H    1.003 --   104 C    0.971
   127   1 H    1.003 --   106 C    0.973
   128   1 H    0.997 --   107 C    0.975
   129   6 C    3.931 --   130 C    2.473   131 C    1.310
   130   6 C    3.920 --   129 C    2.473    24 C    1.188   132 C    0.198
   131   6 C    3.931 --   132 C    2.473   129 C    1.310
   132   6 C    3.920 --   131 C    2.473    88 C    1.188   130 C    0.198
 ---------------------------------------------------------------------------

           -------------------------------------------------
          | TOTAL ENERGY             -267.506082684747 Eh   |
          | GRADIENT NORM               0.000996817525 Eh/α |
          | HOMO-LUMO GAP               0.007185635976 eV   |
           -------------------------------------------------

 * finished run on 2022/07/30 at 06:43:39.022
