   * xtb version 6.5.1 (b24c23e) compiled by 'conda@728c89f4b128' on 2022-07-12
          program call               : xtb Fe_PhOH_C6_2.xyz --gfn 1 --opt -T 48

   ID    Z sym.   atoms
    1   26 Fe     1, 59
    2    6 C      2-6, 8-12, 14-18, 20-25, 27-31, 33-38, 60-64, 66-70, 72-76,
                  78-83, 85-89, 91-96, 117-122
    3    7 N      7, 19, 26, 39, 65, 77, 84, 97
    4    8 O      13, 32, 71, 90
    5    1 H      40-58, 98-116
########################################################################
[WARNING] Please study the warnings concerning your input carefully
-1- prog_main_parseArguments: Unknown option '-T' provided
########################################################################

          :  Hamiltonian                  GFN1-xTB          :
 * total energy  :  -218.4790680 Eh     change        0.5567500E-08 Eh
 * total energy  :  -218.5821585 Eh     change       -0.1030905E+00 Eh
 * total energy  :  -218.6314508 Eh     change       -0.4929232E-01 Eh
 * total energy  :  -218.6455116 Eh     change       -0.1406073E-01 Eh
 * total energy  :  -218.6521600 Eh     change       -0.6648462E-02 Eh
 * total energy  :  -218.6556495 Eh     change       -0.3489426E-02 Eh
 * total energy  :  -218.6572574 Eh     change       -0.1607911E-02 Eh
 * total energy  :  -218.6578264 Eh     change       -0.5690004E-03 Eh
 * total energy  :  -218.6583051 Eh     change       -0.4786889E-03 Eh
 * total energy  :  -218.6585936 Eh     change       -0.2885880E-03 Eh
 * total energy  :  -218.6598820 Eh     change       -0.2302086E-04 Eh
 * total energy  :  -218.6598928 Eh     change       -0.1073204E-04 Eh
 * total energy  :  -218.6598641 Eh     change        0.2869959E-04 Eh
 * total energy  :  -218.6599048 Eh     change       -0.4075148E-04 Eh
 * total energy  :  -218.6599155 Eh     change       -0.1062358E-04 Eh
 * total energy  :  -218.6599206 Eh     change       -0.5126558E-05 Eh
 * total energy  :  -218.6599315 Eh     change       -0.1091639E-04 Eh
 * total energy  :  -218.6599415 Eh     change       -0.9991297E-05 Eh
 * total energy  :  -218.6599459 Eh     change       -0.4399375E-05 Eh
   *** GEOMETRY OPTIMIZATION CONVERGED AFTER 29 ITERATIONS ***

 final structure:
================
122
 xtb: 6.5.1 (b24c23e)
Fe          14.30831950111327       -0.02902148287814       -0.09043082813474
C           10.92483066429183       -0.07994507517442       -0.22438759390390
C           11.58804641912726       -1.28955345238535       -0.24307608935870
C           10.92130094414235       -2.55482062575488       -0.30730897538069
C           11.87660737666695       -3.50368389109035       -0.16579970859390
C           13.12870020768809       -2.81638018820712       -0.03501581617505
N           12.93925939063425       -1.46227372691709       -0.09287791764959
C           14.34406118978912       -3.45178504684940        0.19936639955357
C           14.36278807234435       -4.92935514954329        0.32620015138743
C           14.02085350722398       -5.73883746999372       -0.75698646276426
C           14.04597703575985       -7.12029875471431       -0.64320504236853
C           14.40851012437973       -7.70760993687386        0.56674880311573
O           14.44294404306248       -9.05591239466262        0.72302706646837
C           14.74940834142274       -6.90928917485645        1.65718776920763
C           14.72992729577246       -5.53150065454928        1.53173343834008
C           15.54555450759060       -2.76469978034595        0.29687429632505
C           16.81703040631201       -3.40656240167477        0.45261979354620
C           17.75880764360119       -2.43788461245313        0.35526612512144
N           15.71289691361977       -1.40937632668377        0.13411953077476
C           17.06076478100551       -1.20846186571690        0.14615932829579
C           17.71237313983175        0.01503285786686       -0.05615026997732
C           17.02919739111666        1.22759851838687       -0.20926930813925
C           17.69261981071391        2.47836190544140       -0.40305316309584
C           16.72954854044357        3.43151705024890       -0.40512441108651
C           15.48011228579173        2.75756902395291       -0.21234718527631
N           15.67989982906855        1.40116614055403       -0.12037434002855
C           14.25582700587912        3.40678453730398       -0.12330685681744
C           14.23786367107239        4.88798098387567       -0.14352893685459
C           14.89541393457207        5.61723943883660        0.85059404744491
C           14.88170067861661        7.00045222176902        0.84084996392909
C           14.21347173658469        7.67807218850366       -0.17757571792165
O           14.22404491491840        9.03538780130578       -0.15946158398472
C           13.55898441210962        6.96436433080865       -1.17906483645537
C           13.57012865353183        5.57846008425069       -1.15571273035997
C           13.04693895772319        2.72326875371297       -0.03963741698641
C           11.76734043645058        3.36470603483715        0.05429542911713
C           10.83358171781376        2.38572216828823       -0.00053590033884
C           11.54394232462783        1.14728846089656       -0.10417544909349
N           12.89692416935800        1.36333939963261       -0.09021998594444
H            9.84219525689262       -0.09621457073419       -0.28254468516593
H            9.85692527724947       -2.68040391520654       -0.42752233556476
H           11.75410142976209       -4.57426873783595       -0.13924174422634
H           13.75144360603035       -5.28244620223788       -1.70293723761421
H           13.78708924822464       -7.74556828068811       -1.49095524852569
H           14.18975110449891       -9.51194477712594       -0.09079995938457
H           15.02648459138733       -7.37976102854724        2.59245806675392
H           14.98646053335191       -4.90977338023290        2.38213723449067
H           16.96183623358503       -4.46514293469360        0.59378945434330
H           18.83115815049294       -2.53331002290089        0.41121204025751
H           18.75797854513839        2.59663662064841       -0.51868685946901
H           16.84431419055052        4.49485416856204       -0.53841142667299
H           15.40615916610352        5.08991675512495        1.64847034135492
H           15.38335003429069        7.56821276761576        1.61468246464686
H           13.73270355828367        9.40236128593912       -0.90666485102629
H           13.04555211922839        7.49587204449205       -1.97315272769419
H           13.07233951243309        5.02463351069021       -1.94391048056748
H           11.61478899193663        4.42723663096083        0.15255761338219
H            9.75925475457655        2.47422620385967        0.03276792447999
Fe          30.27907383192637        0.01516157022672       -0.09450316229188
C           33.66249053502353        0.04646671723146       -0.23367565693187
C           32.99922529490171        1.24078681317697       -0.42613197571857
C           33.66594210271320        2.48371085720609       -0.67146135187730
C           32.71065887927649        3.44308436651275       -0.66741772297431
C           31.45858343820655        2.78170236918479       -0.43914507755596
N           31.64802539047028        1.43330342304645       -0.30207539614842
C           30.24325497516243        3.44415871962548       -0.29791720008937
C           30.22456510056236        4.92464665092876       -0.38402615221761
C           30.56709935889377        5.57060472390923       -1.57183565223758
C           30.54233788153690        6.95412339492361       -1.65706666658873
C           30.17949690860171        7.70873644865227       -0.54384790571520
O           30.14549586518115        9.06553382843121       -0.58224946191481
C           29.83782729146417        7.07487133057713        0.64948236228143
C           29.85702258253181        5.69331216787914        0.72265676382881
C           29.04179832370789        2.77806900448799       -0.10291736325904
C           27.77026249366437        3.43550963052422       -0.04075654331689
C           26.82854123767653        2.46279157160426        0.00103112890156
N           28.87454690509304        1.41338477288412       -0.07021696866929
C           27.52667856770302        1.21616134692605       -0.03022272626904
C           26.87513199028642       -0.02368900292745       -0.05601597679951
C           27.55833532446155       -1.24569227986714       -0.03332865047173
C           26.89502241290731       -2.51136757370404       -0.04584096080368
C           27.85807942040182       -3.45486117298221        0.08974532216830
C           29.10737891486281       -2.76011125461231        0.18457341392549
N           28.90756265778143       -1.40458057987128        0.08067962598094
C           30.33161440259774       -3.38971171772953        0.36669114489949
C           30.34958878322361       -4.85843402551279        0.55960641728676
C           29.69184743783151       -5.43724329648689        1.64810420806289
C           29.70566390415986       -6.80748530576063        1.83733892502260
C           30.37416529767975       -7.62442459421306        0.92705419093889
O           30.36370915047668       -8.96503213735853        1.14013540057458
C           31.02880783055546       -7.06205823244039       -0.16652149626301
C           31.01758011607036       -5.68719548465967       -0.34266244409108
C           31.54045721774960       -2.70119382275562        0.35173637920012
C           32.82004925854029       -3.32238102686272        0.53723620115474
C           33.75379287326956       -2.36138616683550        0.34247530231641
C           33.04341914602124       -1.15075997619800        0.06171205850872
N           31.69044720326333       -1.36262520989303        0.10633750555142
H           34.74513198924594        0.05428285849625       -0.29343852687338
H           34.73029059572573        2.59073536040924       -0.80866613063973
H           32.83323639830588        4.50638466283376       -0.79480906358381
H           30.83670373227538        4.98339412350434       -2.44257698342575
H           30.80178300026960        7.45148555639471       -2.58549111581234
H           30.39945365771632        9.40026793042911       -1.45278562866024
H           29.56044301741929        7.67449950654760        1.50758767694831
H           29.59998825586719        5.19984897826605        1.65322557518775
H           27.62535608404673        4.50338429035859       -0.05233399538147
H           25.75616694920723        2.56513311711285        0.04245829624064
H           25.82975240733467       -2.64512964535073       -0.14407778084093
H           27.74340671090330       -4.52632742719268        0.11053652932485
H           29.18086927353710       -4.80073585054337        2.36175775543699
H           29.20389609638546       -7.25814554195272        2.68466530780557
H           30.85514718931399       -9.43556475702146        0.45348111299997
H           31.54243946941914       -7.70216121792436       -0.87584973370862
H           31.51551289045988       -5.25239578214691       -1.20219107717976
H           32.97262466758311       -4.35975575028187        0.78717965696127
H           34.82811144382531       -2.44412867756320        0.38840287151918
C           22.90885538250748       -0.01904307198162       -0.10881972890353
C           21.67862377662352       -0.00092875915314       -0.10870806237680
C           20.33792229268783        0.01224872217617       -0.09855801248195
C           19.11224437337430        0.02374457030542       -0.08481182231346
C           24.24959604142995       -0.02868935354853       -0.09972320380469
C           25.47525571823657       -0.03644171642682       -0.08294995457653

          :  Hamiltonian                  GFN1-xTB          :
         :: total energy            -218.659945884374 Eh    ::
         :: gradient norm              0.000501555668 Eh/a0 ::
         :: HOMO-LUMO gap              0.091293763740 eV    ::
         :: SCC energy              -222.062541315159 Eh    ::
         :: repulsion energy           3.510600943975 Eh    ::

    * Orbital Energies and Occupations

         #    Occupation            Energy/Eh            Energy/eV
      -------------------------------------------------------------
         1        2.0000           -0.8065870             -21.9484
       ...           ...                  ...                  ...
       187        2.0000           -0.4202875             -11.4366
       188        2.0000           -0.4188205             -11.3967
       189        2.0000           -0.4161413             -11.3238
       190        2.0000           -0.3960356             -10.7767
       191        2.0000           -0.3960279             -10.7765
       192        2.0000           -0.3940532             -10.7227
       193        1.9927           -0.3875343             -10.5453
       194        1.9909           -0.3873325             -10.5399
       195        1.9518           -0.3857257             -10.4961
       196        1.9509           -0.3857073             -10.4956
       197        1.9460           -0.3856147             -10.4931
       198        1.9460           -0.3856138             -10.4931
       199        1.7121           -0.3839030             -10.4465 (HOMO)
       200        0.2965           -0.3805480             -10.3552 (LUMO)
       201        0.2131           -0.3801889             -10.3455
       202                         -0.3388794              -9.2214
       203                         -0.3264157              -8.8822
       204                         -0.3264059              -8.8820
       205                         -0.3262129              -8.8767
       206                         -0.3000428              -8.1646
       207                         -0.2999722              -8.1627
       208                         -0.2993977              -8.1470
       209                         -0.2918543              -7.9418
       210                         -0.2891432              -7.8680
       ...                                ...                  ...
       422                          1.5738774              42.8274
      -------------------------------------------------------------
                  HL-Gap            0.0033550 Eh            0.0913 eV

Wiberg/Mayer (AO) data.
largest (>0.10) Wiberg bond orders for each atom

     #   Z sym  total        # sym  WBO       # sym  WBO       # sym  WBO
 ---------------------------------------------------------------------------
     1  26 Fe   3.161 --    39 N    0.671     7 N    0.665    19 N    0.664
                            26 N    0.659
     2   6 C    3.924 --     3 C    1.363    38 C    1.362    40 H    0.970
     3   6 C    3.925 --     2 C    1.363     7 N    1.209     4 C    1.174
     4   6 C    3.959 --     5 C    1.648     3 C    1.174    41 H    0.975
     5   6 C    3.962 --     4 C    1.648     6 C    1.176    42 H    0.973
     6   6 C    3.920 --     8 C    1.311     7 N    1.227     5 C    1.176
     7   7 N    3.379 --     6 C    1.227     3 C    1.209     1 Fe   0.665
     8   6 C    3.927 --    16 C    1.336     6 C    1.311     9 C    1.025
     9   6 C    3.988 --    10 C    1.394    15 C    1.384     8 C    1.025
    10   6 C    3.987 --    11 C    1.452     9 C    1.394    43 H    0.973
                            14 C    0.105
    11   6 C    3.988 --    10 C    1.452    12 C    1.372    44 H    0.970
                            15 C    0.103
    12   6 C    3.901 --    11 C    1.372    14 C    1.364    13 O    1.041
    13   8 O    2.044 --    12 C    1.041    45 H    0.865
    14   6 C    3.990 --    15 C    1.466    12 C    1.364    46 H    0.971
                            10 C    0.105
    15   6 C    3.988 --    14 C    1.466     9 C    1.384    47 H    0.973
                            11 C    0.103
    16   6 C    3.917 --     8 C    1.336    19 N    1.199    17 C    1.180
    17   6 C    3.957 --    18 C    1.638    16 C    1.180    48 H    0.973
    18   6 C    3.960 --    17 C    1.638    20 C    1.189    49 H    0.973
    19   7 N    3.381 --    20 C    1.248    16 C    1.199     1 Fe   0.664
    20   6 C    3.904 --    19 N    1.248    21 C    1.247    18 C    1.189
    21   6 C    3.924 --    22 C    1.250    20 C    1.247   120 C    1.206
    22   6 C    3.905 --    21 C    1.250    26 N    1.245    23 C    1.190
    23   6 C    3.960 --    24 C    1.636    22 C    1.190    50 H    0.973
    24   6 C    3.958 --    23 C    1.636    25 C    1.181    51 H    0.973
    25   6 C    3.917 --    27 C    1.330    26 N    1.203    24 C    1.181
    26   7 N    3.379 --    22 C    1.245    25 C    1.203     1 Fe   0.659
    27   6 C    3.927 --    25 C    1.330    35 C    1.313    28 C    1.031
    28   6 C    3.988 --    34 C    1.391    29 C    1.381    27 C    1.031
    29   6 C    3.987 --    30 C    1.468    28 C    1.381    52 H    0.973
                            33 C    0.102
    30   6 C    3.990 --    29 C    1.468    31 C    1.363    53 H    0.971
                            34 C    0.104
    31   6 C    3.900 --    33 C    1.371    30 C    1.363    32 O    1.042
    32   8 O    2.044 --    31 C    1.042    54 H    0.865
    33   6 C    3.988 --    34 C    1.453    31 C    1.371    55 H    0.970
                            29 C    0.102
    34   6 C    3.986 --    33 C    1.453    28 C    1.391    56 H    0.972
                            30 C    0.104
    35   6 C    3.920 --    27 C    1.313    39 N    1.225    36 C    1.176
    36   6 C    3.962 --    37 C    1.647    35 C    1.176    57 H    0.973
    37   6 C    3.959 --    36 C    1.647    38 C    1.174    58 H    0.975
    38   6 C    3.925 --     2 C    1.362    39 N    1.210    37 C    1.174
    39   7 N    3.381 --    35 C    1.225    38 C    1.210     1 Fe   0.671
    40   1 H    1.001 --     2 C    0.970
    41   1 H    0.998 --     4 C    0.975
    42   1 H    1.005 --     5 C    0.973
    43   1 H    1.004 --    10 C    0.973
    44   1 H    0.999 --    11 C    0.970
    45   1 H    0.887 --    13 O    0.865
    46   1 H    0.999 --    14 C    0.971
    47   1 H    1.004 --    15 C    0.973
    48   1 H    1.005 --    17 C    0.973
    49   1 H    1.002 --    18 C    0.973
    50   1 H    1.002 --    23 C    0.973
    51   1 H    1.005 --    24 C    0.973
    52   1 H    1.005 --    29 C    0.973
    53   1 H    0.999 --    30 C    0.971
    54   1 H    0.886 --    32 O    0.865
    55   1 H    0.999 --    33 C    0.970
    56   1 H    1.005 --    34 C    0.972
    57   1 H    1.005 --    36 C    0.973
    58   1 H    0.998 --    37 C    0.975
    59  26 Fe   3.162 --    97 N    0.671    65 N    0.666    77 N    0.664
                            84 N    0.659
    60   6 C    3.924 --    61 C    1.363    96 C    1.362    98 H    0.970
    61   6 C    3.925 --    60 C    1.363    65 N    1.209    62 C    1.174
    62   6 C    3.959 --    63 C    1.648    61 C    1.174    99 H    0.975
    63   6 C    3.962 --    62 C    1.648    64 C    1.176   100 H    0.973
    64   6 C    3.920 --    66 C    1.311    65 N    1.227    63 C    1.176
    65   7 N    3.379 --    64 C    1.227    61 C    1.209    59 Fe   0.666
    66   6 C    3.927 --    74 C    1.336    64 C    1.311    67 C    1.025
    67   6 C    3.988 --    68 C    1.394    73 C    1.384    66 C    1.025
    68   6 C    3.987 --    69 C    1.452    67 C    1.394   101 H    0.973
                            72 C    0.105
    69   6 C    3.988 --    68 C    1.452    70 C    1.372   102 H    0.970
                            73 C    0.103
    70   6 C    3.901 --    69 C    1.372    72 C    1.364    71 O    1.041
    71   8 O    2.044 --    70 C    1.041   103 H    0.865
    72   6 C    3.990 --    73 C    1.466    70 C    1.364   104 H    0.971
                            68 C    0.105
    73   6 C    3.988 --    72 C    1.466    67 C    1.384   105 H    0.973
                            69 C    0.103
    74   6 C    3.917 --    66 C    1.336    77 N    1.199    75 C    1.180
    75   6 C    3.957 --    76 C    1.638    74 C    1.180   106 H    0.973
    76   6 C    3.960 --    75 C    1.638    78 C    1.189   107 H    0.973
    77   7 N    3.381 --    78 C    1.248    74 C    1.199    59 Fe   0.664
    78   6 C    3.904 --    77 N    1.248    79 C    1.247    76 C    1.189
    79   6 C    3.924 --    80 C    1.250    78 C    1.247   122 C    1.206
    80   6 C    3.905 --    79 C    1.250    84 N    1.245    81 C    1.190
    81   6 C    3.960 --    82 C    1.636    80 C    1.190   108 H    0.973
    82   6 C    3.958 --    81 C    1.636    83 C    1.181   109 H    0.973
    83   6 C    3.917 --    85 C    1.330    84 N    1.203    82 C    1.181
    84   7 N    3.379 --    80 C    1.245    83 C    1.203    59 Fe   0.659
    85   6 C    3.927 --    83 C    1.330    93 C    1.313    86 C    1.031
    86   6 C    3.988 --    92 C    1.391    87 C    1.381    85 C    1.031
    87   6 C    3.987 --    88 C    1.468    86 C    1.381   110 H    0.973
                            91 C    0.102
    88   6 C    3.990 --    87 C    1.468    89 C    1.363   111 H    0.971
                            92 C    0.104
    89   6 C    3.900 --    91 C    1.371    88 C    1.363    90 O    1.042
    90   8 O    2.044 --    89 C    1.042   112 H    0.865
    91   6 C    3.988 --    92 C    1.453    89 C    1.371   113 H    0.970
                            87 C    0.102
    92   6 C    3.986 --    91 C    1.453    86 C    1.391   114 H    0.972
                            88 C    0.104
    93   6 C    3.920 --    85 C    1.313    97 N    1.225    94 C    1.176
    94   6 C    3.962 --    95 C    1.647    93 C    1.176   115 H    0.973
    95   6 C    3.959 --    94 C    1.647    96 C    1.174   116 H    0.975
    96   6 C    3.925 --    60 C    1.362    97 N    1.210    95 C    1.174
    97   7 N    3.381 --    93 C    1.225    96 C    1.210    59 Fe   0.671
    98   1 H    1.001 --    60 C    0.970
    99   1 H    0.998 --    62 C    0.975
   100   1 H    1.005 --    63 C    0.973
   101   1 H    1.004 --    68 C    0.973
   102   1 H    0.999 --    69 C    0.970
   103   1 H    0.887 --    71 O    0.865
   104   1 H    0.999 --    72 C    0.971
   105   1 H    1.004 --    73 C    0.973
   106   1 H    1.005 --    75 C    0.973
   107   1 H    1.002 --    76 C    0.973
   108   1 H    1.002 --    81 C    0.973
   109   1 H    1.005 --    82 C    0.973
   110   1 H    1.005 --    87 C    0.973
   111   1 H    0.999 --    88 C    0.971
   112   1 H    0.886 --    90 O    0.865
   113   1 H    0.999 --    91 C    0.970
   114   1 H    1.005 --    92 C    0.972
   115   1 H    1.005 --    94 C    0.973
   116   1 H    0.998 --    95 C    0.975
   117   6 C    3.914 --   118 C    2.338   121 C    1.354   120 C    0.186
   118   6 C    3.914 --   117 C    2.338   119 C    1.354   122 C    0.186
   119   6 C    3.922 --   120 C    2.420   118 C    1.354
   120   6 C    3.879 --   119 C    2.420    21 C    1.206   117 C    0.186
   121   6 C    3.922 --   122 C    2.420   117 C    1.354
   122   6 C    3.879 --   121 C    2.420    79 C    1.206   118 C    0.186
 ---------------------------------------------------------------------------

           -------------------------------------------------
          | TOTAL ENERGY             -218.659945884374 Eh   |
          | GRADIENT NORM               0.000501555668 Eh/α |
          | HOMO-LUMO GAP               0.091293763740 eV   |
           -------------------------------------------------

 * finished run on 2022/07/29 at 20:34:23.663
