   * xtb version 6.5.1 (b24c23e) compiled by 'conda@728c89f4b128' on 2022-07-12
          program call               : xtb Zn_m-CP_C2_2.xyz --gfn 1 --opt -T 48

   ID    Z sym.   atoms
    1   30 Zn     1, 63
    2    6 C      2-6, 8-12, 15-20, 22-27, 29-35, 38-42, 64-68, 70-74, 77-82,
                  84-89, 91-97, 100-104, 125, 126
    3    7 N      7, 21, 28, 43, 69, 83, 90, 105
    4    8 O      13, 14, 36, 37, 75, 76, 98, 99
    5    1 H      44-62, 106-124
########################################################################
[WARNING] Please study the warnings concerning your input carefully
-1- prog_main_parseArguments: Unknown option '-T' provided
########################################################################

          :  Hamiltonian                  GFN1-xTB          :
 * total energy  :  -232.6651118 Eh     change       -0.5268532E-09 Eh
 * total energy  :  -233.0030887 Eh     change       -0.3379769E+00 Eh
 * total energy  :  -233.1058464 Eh     change       -0.1027578E+00 Eh
 * total energy  :  -233.1504048 Eh     change       -0.4455832E-01 Eh
 * total energy  :  -233.1685234 Eh     change       -0.1811870E-01 Eh
 * total energy  :  -233.1777843 Eh     change       -0.9260834E-02 Eh
 * total energy  :  -233.1837995 Eh     change       -0.6015168E-02 Eh
 * total energy  :  -233.1882464 Eh     change       -0.4446975E-02 Eh
 * total energy  :  -233.1915051 Eh     change       -0.3258705E-02 Eh
 * total energy  :  -233.1938310 Eh     change       -0.2325853E-02 Eh
 * total energy  :  -233.2002573 Eh     change       -0.1632582E-04 Eh
 * total energy  :  -233.2002761 Eh     change       -0.1875312E-04 Eh
 * total energy  :  -233.2002915 Eh     change       -0.1544149E-04 Eh
 * total energy  :  -233.2003200 Eh     change       -0.2844127E-04 Eh
 * total energy  :  -233.2003394 Eh     change       -0.1943029E-04 Eh
 * total energy  :  -233.2003665 Eh     change       -0.2710140E-04 Eh
 * total energy  :  -233.2003726 Eh     change       -0.6071029E-05 Eh
 * total energy  :  -233.2003803 Eh     change       -0.7710505E-05 Eh
 * total energy  :  -233.2003845 Eh     change       -0.4275332E-05 Eh
   *** GEOMETRY OPTIMIZATION CONVERGED AFTER 39 ITERATIONS ***

 final structure:
================
126
 xtb: 6.5.1 (b24c23e)
Zn          17.00459043051195        0.03618692147448        0.01200671160998
C           13.59531366179958        0.02391941947700        0.18123896771726
C           14.21842339737360        1.25871409122005        0.31320642060212
C           13.53821446481579        2.51269007633064        0.48214115807774
C           14.49190687798336        3.47139388404035        0.58246644438795
C           15.76837104478248        2.81216698038812        0.48956985791320
N           15.56655367370957        1.47474138362140        0.31285909549682
C           17.01762020821343        3.43850364070714        0.56284857754520
C           17.02659270390544        4.90615599733902        0.78672632245173
C           16.46653773294016        5.45411564747860        1.93737136104400
C           16.46948587410845        6.83400803701478        2.13840512160253
C           15.85715740469936        7.35639584553505        3.38525655428651
O           15.90493678905734        8.69325824619914        3.48698457883875
O           15.35562978668445        6.66838979012062        4.23744492988893
C           17.03468584108276        7.67896790920518        1.18317769077345
C           17.59432794432863        7.13630291768248        0.03716749207715
C           17.59264516971746        5.76277697790789       -0.16088616122092
C           18.26000608012516        2.80371418719035        0.44678882012595
C           19.53277037824345        3.44597868568438        0.61976406592214
C           20.48524383557022        2.49663479921510        0.43708275947626
N           18.46467183393608        1.47737680182532        0.17639538883096
C           19.80998414147977        1.26640300180011        0.15018116877037
C           20.45105034154011        0.04318115535792       -0.13656893292830
C           19.79096447213644       -1.17860847112426       -0.38557028439158
C           20.44359056382160       -2.40149125146117       -0.74536159443752
C           19.48271076409056       -3.35403073162939       -0.85382393906937
C           18.22811984190934       -2.72138462911626       -0.55828019550747
N           18.44947871003401       -1.39541838625196       -0.29827192840713
C           16.98514786141022       -3.36553799820457       -0.55202520609149
C           16.98529488541519       -4.83370597705776       -0.77201940784795
C           17.65861107234269       -5.67813521853994        0.11427878840027
C           17.65843830681353       -7.05260310312706       -0.07788082023546
C           16.98791966433768       -7.60237607633867       -1.15762635500627
C           16.31260781034536       -6.76984117465937       -2.05158519424398
C           15.60476750529112       -7.39779670108515       -3.19474311002504
O           14.97993190678383       -6.51669083107874       -3.99009048543661
O           15.57709923002223       -8.58288313757257       -3.40921072178031
C           16.31203468571699       -5.38974730495978       -1.85770421752898
C           15.74522687293527       -2.74877261286987       -0.35063043608814
C           14.47153254182936       -3.41789621747737       -0.30769468149585
C           13.52598470084458       -2.46605080940056       -0.10911567701986
C           14.21030791833768       -1.20673556363631       -0.01497824627840
N           15.55244870138496       -1.41229180083850       -0.15686737683542
H           12.51127504587036        0.01991037789055        0.23876456064444
H           12.46656484389324        2.63240368817136        0.51171380638699
H           14.34800382206860        4.53335881590907        0.70105018657991
H           16.03482011154266        4.81252883764852        2.69778775875831
H           15.48612479497569        8.95412474926272        4.32316553811554
H           17.03388638430372        8.75079154671040        1.33992893084724
H           18.03330030858543        7.78700947236967       -0.71072643094780
H           18.02020019056510        5.34605867129100       -1.06609282548808
H           19.67792860797134        4.48504397917708        0.86802751422391
H           21.55377056077324        2.61384737298978        0.50224103530785
H           21.50196644148418       -2.51172121465872       -0.91130348502330
H           19.61032520636038       -4.38897843660537       -1.12752734793563
H           18.17265540804966       -5.25058291806929        0.96797398401018
H           18.18215702727278       -7.69463848640600        0.62123950571140
H           16.97626661270165       -8.67377548864189       -1.32289586217906
H           14.54250198814234       -7.00438824667714       -4.70662648152498
H           15.79952295544615       -4.74525874701485       -2.56206467992456
H           14.32431156680027       -4.48146098741432       -0.40671231078143
H           12.45827857895088       -2.59456865470543       -0.02426438692540
Zn          27.93830043661649       -0.03812454108127       -0.00046802187485
C           31.34757466917529       -0.08172767724245        0.16354803869897
C           30.72446911255506       -1.29203315687904       -0.11448030892809
C           31.40468169655718       -2.53252745054984       -0.36380658954645
C           30.45099232871575       -3.47152094730834       -0.58169534424013
C           29.17452583316354       -2.81805035036766       -0.45449166926644
N           29.37633984057634       -1.49613313432975       -0.18528850006926
C           27.92527721516135       -3.43403231376946       -0.58953783489519
C           27.91629694497771       -4.89443992580333       -0.85662024113404
C           28.47631850394979       -5.78774926306695        0.05237834052246
C           28.47342037589395       -7.15774635743091       -0.20769951649138
C           29.08595182912411       -8.05825905102832        0.80046222448518
O           29.03795164345744       -9.35517269853650        0.46069752161862
O           29.58722896332179       -7.68582312500082        1.83061532962697
C           27.90821824691615       -7.64491847820534       -1.38629044710765
C           27.34858095843778       -6.75812733076210       -2.29261884234622
C           27.35025824703255       -5.39512010937084       -2.03182396665086
C           26.68289112970780       -2.79610408851656       -0.49220567450009
C           25.41012721913688       -3.45966210856354       -0.53819811378767
C           24.45765352631697       -2.50265407869449       -0.40122746685450
N           26.47822476498883       -1.45411167453871       -0.31517620867513
C           25.13291291289964       -1.24612630684231       -0.27114472025350
C           24.49184153533525        0.00372500417368       -0.14321770432339
C           25.15192231782618        1.23991280645577        0.01992217638487
C           24.49929605735496        2.51327014722959        0.07868061032150
C           25.46017512508085        3.44909168485619        0.28685189132425
C           26.71476561210709        2.75464612820884        0.35988435670937
N           26.49340820360464        1.41639020290410        0.17316869993247
C           27.95773533315440        3.36152883446750        0.57592123992584
C           27.95758606057235        4.82115552004594        0.84685467691770
C           27.28425841402091        5.33029874423304        1.96011293354473
C           27.28443170591772        6.69226925570368        2.22680176269909
C           27.95496170256573        7.56417257181013        1.38545165023286
C           28.63028207378630        7.06877286754354        0.26882956145668
C           29.33811882448068        8.03527032047941       -0.60697114749806
O           29.96297148090290        7.46179247882799       -1.64621333724540
O           29.36579765907533        9.22549371473972       -0.42313403714283
C           28.63085742767816        5.70092181850339        0.00193493852306
C           29.19765605225665        2.71280425047422        0.56514098343935
C           30.47134697312277        3.33132612141842        0.82400251024012
C           31.41689605802812        2.36676646608941        0.70126114404079
C           30.73257718391675        1.14562106544038        0.37947437496511
N           29.39043734319187        1.38621697946955        0.31237483569167
H           32.43161261911639       -0.09670133300257        0.21924855656998
H           32.47633157748944       -2.65533851931382       -0.37488921577797
H           30.59489885869766       -4.51408205575686       -0.81599593088998
H           28.90806775969896       -5.42928079358366        0.98046125485207
H           29.45662312045069       -9.87450386918200        1.16613725989797
H           27.90902026884444       -8.70925151293781       -1.58771903755693
H           26.90960424949915       -7.12929908604568       -3.21185299745899
H           26.92269627222774       -4.70593492375041       -2.75159625593108
H           25.26496874221365       -4.52287585739812       -0.64244780164640
H           23.38912680023309       -2.63470993811330       -0.37787099333384
H           23.44092036665588        2.67159749643548       -0.04223373158998
H           25.33256110050131        4.51671282983563        0.36569069873589
H           26.77020655258055        4.64766532494647        2.62764605569747
H           26.76070488031228        7.07114299747958        3.09710327953464
H           27.96661174404331        8.63088066529427        1.57869908015925
H           30.40041125894233        8.15654225769901       -2.16446671490570
H           29.14337952109926        5.32143923527016       -0.87411986653964
H           30.61856481735161        4.36901938477579        1.07731672038562
H           32.48460032458313        2.46057784855167        0.82340839963407
C           21.86222467814391        0.03594850168136       -0.16395551933992
C           23.08066673042979        0.01948485795814       -0.16673167661009

          :  Hamiltonian                  GFN1-xTB          :
         :: total energy            -233.200384548283 Eh    ::
         :: gradient norm              0.000732973634 Eh/a0 ::
         :: HOMO-LUMO gap              1.086225044650 eV    ::
         :: SCC energy              -236.515094303386 Eh    ::
         :: repulsion energy           3.428888397329 Eh    ::

    * Orbital Energies and Occupations

         #    Occupation            Energy/Eh            Energy/eV
      -------------------------------------------------------------
         1        2.0000           -0.8322671             -22.6471
       ...           ...                  ...                  ...
       193        2.0000           -0.4353247             -11.8458
       194        2.0000           -0.4267393             -11.6122
       195        2.0000           -0.4267266             -11.6118
       196        2.0000           -0.4261601             -11.5964
       197        2.0000           -0.4260628             -11.5938
       198        2.0000           -0.4260405             -11.5932
       199        2.0000           -0.4258301             -11.5874
       200        2.0000           -0.4258198             -11.5871
       201        2.0000           -0.4245548             -11.5527
       202        2.0000           -0.3985517             -10.8451
       203        2.0000           -0.3985380             -10.8448
       204        2.0000           -0.3964795             -10.7888
       205        2.0000           -0.3814977             -10.3811 (HOMO)
       206                         -0.3415797              -9.2949 (LUMO)
       207                         -0.3323176              -9.0428
       208                         -0.3323123              -9.0427
       209                         -0.3240837              -8.8188
       210                         -0.3105070              -8.4493
       211                         -0.3100557              -8.4370
       212                         -0.3095209              -8.4225
       213                         -0.3094824              -8.4214
       214                         -0.2996302              -8.1534
       215                         -0.2915752              -7.9342
       216                         -0.2742093              -7.4616
       ...                                ...                  ...
       428                          1.3262256              36.0884
      -------------------------------------------------------------
                  HL-Gap            0.0399180 Eh            1.0862 eV

Wiberg/Mayer (AO) data.
largest (>0.10) Wiberg bond orders for each atom

     #   Z sym  total        # sym  WBO       # sym  WBO       # sym  WBO
 ---------------------------------------------------------------------------
     1  30 Zn   1.995 --     7 N    0.460    43 N    0.459    28 N    0.455
                            21 N    0.455
     2   6 C    3.928 --     3 C    1.358    42 C    1.357    44 H    0.971
     3   6 C    3.921 --     2 C    1.358     7 N    1.233     4 C    1.169
     4   6 C    3.961 --     5 C    1.662     3 C    1.169    45 H    0.975
     5   6 C    3.963 --     4 C    1.662     6 C    1.170    46 H    0.973
     6   6 C    3.919 --     8 C    1.317     7 N    1.244     5 C    1.170
     7   7 N    3.294 --     6 C    1.244     3 C    1.233     1 Zn   0.460
     8   6 C    3.931 --    18 C    1.319     6 C    1.317     9 C    1.028
     9   6 C    3.988 --    10 C    1.408    17 C    1.387     8 C    1.028
                            15 C    0.102
    10   6 C    3.984 --     9 C    1.408    11 C    1.396    47 H    0.968
                            16 C    0.103
    11   6 C    3.988 --    10 C    1.396    15 C    1.390    12 C    1.006
    12   6 C    3.836 --    14 O    1.692    13 O    1.089    11 C    1.006
    13   8 O    2.098 --    12 C    1.089    48 H    0.838    14 O    0.129
    14   8 O    1.961 --    12 C    1.692    13 O    0.129
    15   6 C    3.986 --    16 C    1.448    11 C    1.390    49 H    0.971
                             9 C    0.102
    16   6 C    3.994 --    15 C    1.448    17 C    1.441    50 H    0.972
                            10 C    0.103
    17   6 C    3.987 --    16 C    1.441     9 C    1.387    51 H    0.973
    18   6 C    3.914 --     8 C    1.319    21 N    1.229    19 C    1.180
    19   6 C    3.959 --    20 C    1.643    18 C    1.180    52 H    0.973
    20   6 C    3.962 --    19 C    1.643    22 C    1.188    53 H    0.965
    21   7 N    3.296 --    22 C    1.259    18 C    1.229     1 Zn   0.455
    22   6 C    3.906 --    21 N    1.259    23 C    1.258    20 C    1.188
    23   6 C    3.940 --    22 C    1.258    24 C    1.256   125 C    1.182
    24   6 C    3.906 --    28 N    1.260    23 C    1.256    25 C    1.189
    25   6 C    3.962 --    26 C    1.642    24 C    1.189    54 H    0.965
    26   6 C    3.959 --    25 C    1.642    27 C    1.181    55 H    0.973
    27   6 C    3.914 --    29 C    1.319    28 N    1.228    26 C    1.181
    28   7 N    3.296 --    24 C    1.260    27 C    1.228     1 Zn   0.455
    29   6 C    3.931 --    27 C    1.319    39 C    1.317    30 C    1.028
    30   6 C    3.988 --    38 C    1.406    31 C    1.388    29 C    1.028
                            33 C    0.102
    31   6 C    3.987 --    32 C    1.440    30 C    1.388    56 H    0.973
    32   6 C    3.994 --    33 C    1.450    31 C    1.440    57 H    0.972
                            38 C    0.103
    33   6 C    3.985 --    32 C    1.450    34 C    1.387    58 H    0.969
                            30 C    0.102
    34   6 C    3.988 --    38 C    1.399    33 C    1.387    35 C    1.006
    35   6 C    3.835 --    37 O    1.691    36 O    1.089    34 C    1.006
    36   8 O    2.098 --    35 C    1.089    59 H    0.838    37 O    0.129
    37   8 O    1.960 --    35 C    1.691    36 O    0.129
    38   6 C    3.985 --    30 C    1.406    34 C    1.399    60 H    0.969
                            32 C    0.103
    39   6 C    3.919 --    29 C    1.317    43 N    1.243    40 C    1.171
    40   6 C    3.963 --    41 C    1.660    39 C    1.171    61 H    0.973
    41   6 C    3.960 --    40 C    1.660    42 C    1.170    62 H    0.975
    42   6 C    3.921 --     2 C    1.357    43 N    1.234    41 C    1.170
    43   7 N    3.292 --    39 C    1.243    42 C    1.234     1 Zn   0.459
    44   1 H    1.001 --     2 C    0.971
    45   1 H    0.998 --     4 C    0.975
    46   1 H    1.004 --     5 C    0.973
    47   1 H    1.007 --    10 C    0.968
    48   1 H    0.873 --    13 O    0.838
    49   1 H    1.005 --    15 C    0.971
    50   1 H    1.002 --    16 C    0.972
    51   1 H    1.005 --    17 C    0.973
    52   1 H    1.004 --    19 C    0.973
    53   1 H    1.008 --    20 C    0.965
    54   1 H    1.008 --    25 C    0.965
    55   1 H    1.004 --    26 C    0.973
    56   1 H    1.005 --    31 C    0.973
    57   1 H    1.002 --    32 C    0.972
    58   1 H    1.005 --    33 C    0.969
    59   1 H    0.873 --    36 O    0.838
    60   1 H    1.008 --    38 C    0.969
    61   1 H    1.004 --    40 C    0.973
    62   1 H    0.998 --    41 C    0.975
    63  30 Zn   1.995 --    69 N    0.460   105 N    0.459    90 N    0.455
                            83 N    0.455
    64   6 C    3.928 --    65 C    1.358   104 C    1.357   106 H    0.971
    65   6 C    3.921 --    64 C    1.358    69 N    1.233    66 C    1.169
    66   6 C    3.961 --    67 C    1.662    65 C    1.169   107 H    0.975
    67   6 C    3.963 --    66 C    1.662    68 C    1.170   108 H    0.973
    68   6 C    3.919 --    70 C    1.317    69 N    1.244    67 C    1.170
    69   7 N    3.294 --    68 C    1.244    65 C    1.233    63 Zn   0.460
    70   6 C    3.931 --    80 C    1.319    68 C    1.317    71 C    1.028
    71   6 C    3.988 --    72 C    1.408    79 C    1.387    70 C    1.028
                            77 C    0.102
    72   6 C    3.984 --    71 C    1.408    73 C    1.396   109 H    0.968
                            78 C    0.103
    73   6 C    3.988 --    72 C    1.396    77 C    1.390    74 C    1.006
    74   6 C    3.836 --    76 O    1.692    75 O    1.089    73 C    1.006
    75   8 O    2.098 --    74 C    1.089   110 H    0.838    76 O    0.129
    76   8 O    1.961 --    74 C    1.692    75 O    0.129
    77   6 C    3.986 --    78 C    1.448    73 C    1.390   111 H    0.971
                            71 C    0.102
    78   6 C    3.994 --    77 C    1.448    79 C    1.441   112 H    0.972
                            72 C    0.103
    79   6 C    3.987 --    78 C    1.441    71 C    1.387   113 H    0.973
    80   6 C    3.914 --    70 C    1.319    83 N    1.229    81 C    1.180
    81   6 C    3.959 --    82 C    1.643    80 C    1.180   114 H    0.973
    82   6 C    3.962 --    81 C    1.643    84 C    1.188   115 H    0.965
    83   7 N    3.296 --    84 C    1.259    80 C    1.229    63 Zn   0.455
    84   6 C    3.906 --    83 N    1.259    85 C    1.258    82 C    1.188
    85   6 C    3.940 --    84 C    1.258    86 C    1.256   126 C    1.182
    86   6 C    3.906 --    90 N    1.260    85 C    1.256    87 C    1.189
    87   6 C    3.962 --    88 C    1.642    86 C    1.189   116 H    0.965
    88   6 C    3.959 --    87 C    1.642    89 C    1.181   117 H    0.973
    89   6 C    3.914 --    91 C    1.319    90 N    1.228    88 C    1.181
    90   7 N    3.296 --    86 C    1.260    89 C    1.228    63 Zn   0.455
    91   6 C    3.931 --    89 C    1.319   101 C    1.317    92 C    1.028
    92   6 C    3.988 --   100 C    1.406    93 C    1.388    91 C    1.028
                            95 C    0.102
    93   6 C    3.987 --    94 C    1.440    92 C    1.388   118 H    0.973
    94   6 C    3.994 --    95 C    1.450    93 C    1.440   119 H    0.972
                           100 C    0.103
    95   6 C    3.985 --    94 C    1.450    96 C    1.387   120 H    0.969
                            92 C    0.102
    96   6 C    3.988 --   100 C    1.399    95 C    1.387    97 C    1.006
    97   6 C    3.835 --    99 O    1.691    98 O    1.089    96 C    1.006
    98   8 O    2.098 --    97 C    1.089   121 H    0.838    99 O    0.129
    99   8 O    1.960 --    97 C    1.691    98 O    0.129
   100   6 C    3.985 --    92 C    1.406    96 C    1.399   122 H    0.969
                            94 C    0.103
   101   6 C    3.919 --    91 C    1.317   105 N    1.243   102 C    1.171
   102   6 C    3.963 --   103 C    1.660   101 C    1.171   123 H    0.973
   103   6 C    3.960 --   102 C    1.660   104 C    1.170   124 H    0.975
   104   6 C    3.921 --    64 C    1.357   105 N    1.234   103 C    1.170
   105   7 N    3.292 --   101 C    1.243   104 C    1.234    63 Zn   0.459
   106   1 H    1.001 --    64 C    0.971
   107   1 H    0.998 --    66 C    0.975
   108   1 H    1.004 --    67 C    0.973
   109   1 H    1.007 --    72 C    0.968
   110   1 H    0.873 --    75 O    0.838
   111   1 H    1.005 --    77 C    0.971
   112   1 H    1.002 --    78 C    0.972
   113   1 H    1.005 --    79 C    0.973
   114   1 H    1.004 --    81 C    0.973
   115   1 H    1.008 --    82 C    0.965
   116   1 H    1.008 --    87 C    0.965
   117   1 H    1.004 --    88 C    0.973
   118   1 H    1.005 --    93 C    0.973
   119   1 H    1.002 --    94 C    0.972
   120   1 H    1.005 --    95 C    0.969
   121   1 H    0.873 --    98 O    0.838
   122   1 H    1.008 --   100 C    0.969
   123   1 H    1.004 --   102 C    0.973
   124   1 H    0.998 --   103 C    0.975
   125   6 C    3.935 --   126 C    2.576    23 C    1.182
   126   6 C    3.935 --   125 C    2.576    85 C    1.182
 ---------------------------------------------------------------------------

           -------------------------------------------------
          | TOTAL ENERGY             -233.200384548283 Eh   |
          | GRADIENT NORM               0.000732973634 Eh/α |
          | HOMO-LUMO GAP               1.086225044650 eV   |
           -------------------------------------------------

 * finished run on 2022/07/30 at 10:03:19.774
