   * xtb version 6.5.1 (b24c23e) compiled by 'conda@728c89f4b128' on 2022-07-12
          program call               : xtb PhNO2_C8_2.xyz --gfn 1 --opt -T 48

   ID    Z sym.   atoms
    1    6 C      1-5, 7-11, 15-19, 21-26, 28-32, 36-41, 62-66, 68-72, 76-80,
                  82-87, 89-93, 97-102, 123-130
    2    7 N      6, 12, 20, 27, 33, 42, 67, 73, 81, 88, 94, 103
    3    8 O      13, 14, 34, 35, 74, 75, 95, 96
    4    1 H      43-61, 104-122
########################################################################
[WARNING] Please study the warnings concerning your input carefully
-1- prog_main_parseArguments: Unknown option '-T' provided
########################################################################

          :  Hamiltonian                  GFN1-xTB          :
 * total energy  :  -247.2308543 Eh     change        0.1485245E-07 Eh
 * total energy  :  -247.6518874 Eh     change       -0.4210332E+00 Eh
 * total energy  :  -247.7580175 Eh     change       -0.1061300E+00 Eh
 * total energy  :  -247.8011719 Eh     change       -0.4315438E-01 Eh
 * total energy  :  -247.8167998 Eh     change       -0.1562795E-01 Eh
 * total energy  :  -247.8263507 Eh     change       -0.9550935E-02 Eh
 * total energy  :  -247.8307802 Eh     change       -0.4429487E-02 Eh
 * total energy  :  -247.8323659 Eh     change       -0.1585703E-02 Eh
 * total energy  :  -247.8350880 Eh     change       -0.2722067E-02 Eh
 * total energy  :  -247.8366733 Eh     change       -0.1585310E-02 Eh
 * total energy  :  -247.8489573 Eh     change       -0.7881872E-05 Eh
 * total energy  :  -247.8489633 Eh     change       -0.5925667E-05 Eh
 * total energy  :  -247.8489713 Eh     change       -0.8027672E-05 Eh
 * total energy  :  -247.8489797 Eh     change       -0.8462174E-05 Eh
 * total energy  :  -247.8489884 Eh     change       -0.8694531E-05 Eh
 * total energy  :  -247.8489969 Eh     change       -0.8505692E-05 Eh
 * total energy  :  -247.8490038 Eh     change       -0.6885722E-05 Eh
 * total energy  :  -247.8490098 Eh     change       -0.6002321E-05 Eh
 * total energy  :  -247.8490145 Eh     change       -0.4673816E-05 Eh
   *** GEOMETRY OPTIMIZATION CONVERGED AFTER 65 ITERATIONS ***

 final structure:
================
130
 xtb: 6.5.1 (b24c23e)
C            9.99486896790325       -0.10403031360217       -0.03130485467257
C           10.60151895590599       -1.31890369030567        0.25970297333658
C            9.94671870824660       -2.55516730650081        0.52213082576841
C           10.90555254572702       -3.49243388413373        0.78373736323304
C           12.17729425251646       -2.85604640704344        0.69867714398478
N           11.94357774187682       -1.55198733896182        0.36868187672474
C           13.44014780437992       -3.43145152639399        0.88311096771940
C           13.47080210767984       -4.85982477564504        1.27319579944587
C           14.11908922424121       -5.79961331679520        0.46537124729130
C           14.15473456766607       -7.13361187694153        0.82763612380127
C           13.53984166455306       -7.53267015507308        2.01115692739710
N           13.57891482827072       -8.93104943319610        2.39947410932155
O           14.15507434653753       -9.69679282706839        1.66985535884045
O           13.03207906996381       -9.24002424728796        3.42730644857530
C           12.88869682773440       -6.61374098399460        2.82931603541521
C           12.85464911975192       -5.28287427989515        2.45524201337658
C           14.65834846673652       -2.76261162158739        0.73123666910249
C           15.95414371633960       -3.36502539449512        0.99000746480888
C           16.87546672349610       -2.41483361682262        0.72989004634922
N           14.81342451693284       -1.46658622359922        0.34672766345534
C           16.14123538796611       -1.23145818469994        0.32560585261600
C           16.78035034680732       -0.02849764337511       -0.03705252905875
C           16.14677012567594        1.17968730388610       -0.38550274182546
C           16.79401724022206        2.38417811722635       -0.76792520142380
C           15.83024660267825        3.32651834788051       -0.99763396344234
C           14.56377139463613        2.72624104460019       -0.75385484092669
N           14.80624989400708        1.42642709560530       -0.39878433594017
C           13.30159385480033        3.31919391549662       -0.87814871651409
C           13.27360368600331        4.75621253516448       -1.23243142347753
C           12.62757442555393        5.18710549411799       -2.39574332013321
C           12.60035777004544        6.52870676609365       -2.72957691971209
C           13.22096121703401        7.45042981617707       -1.89087632385146
N           13.19400763625367        8.86034595671520       -2.23552071356250
O           12.60828935947561        9.17847796291047       -3.23875438997107
O           13.76114225789813        9.62568411998301       -1.49822695401689
C           13.86773615640476        7.04320010853612       -0.72731031075291
C           13.89325563539715        5.69877905669028       -0.40521642640823
C           12.08257486295812        2.65751521716729       -0.69120138262218
C           10.77870746694266        3.29879380490453       -0.77286982181522
C            9.86479376653188        2.33562019621634       -0.54154390581773
C           10.60891743332965        1.11101938992553       -0.30323282254096
N           11.94160790758304        1.34537519714450       -0.39110087602098
H            8.90964716308189       -0.11343215672869       -0.03859117748075
H            8.87802359002750       -2.69679429606054        0.50444134052490
H           10.75133829069529       -4.53579579446531        1.00613888903210
H           12.67098478475885       -0.85945072035617        0.22538940093111
H           14.58321330437619       -5.47870254238987       -0.45985012401898
H           14.65076678905622       -7.86907799740189        0.20577035069474
H           12.42149052525621       -6.94881463962619        3.74755038274735
H           12.36452262220804       -4.55606086801161        3.09256907860336
H           16.11629612743484       -4.37188819346841        1.33880376115825
H           17.94883003509705       -2.48008191602953        0.80669002200937
H           17.86151203599300        2.50359273605224       -0.85829965841959
H           15.98080649254187        4.34386253002702       -1.31976795654416
H           14.08176715647366        0.74973807838059       -0.18218356669444
H           12.16088577776361        4.45878244802595       -3.04855490906921
H           12.10804712707539        6.87077948769595       -3.63197436317773
H           14.33877970533524        7.78051224017680       -0.08840435574076
H           14.38035094842856        5.37171985936016        0.50608351626342
H           10.61022114527035        4.34584012189779       -0.96637120890380
H            8.78960172189602        2.41700165403086       -0.51664868231566
C           35.30986059076616        0.06957223634065       -0.08676879238791
C           34.70304140395206        1.26216096333330       -0.45839099007515
C           35.35737313516748        2.45822628707040       -0.86732745676219
C           34.39823550095133        3.39718820153657       -1.12165874015407
C           33.12680383167771        2.80714523120919       -0.86695474784554
N           33.36096094353621        1.51823011442638       -0.48241369690190
C           31.86381283945718        3.39577144962821       -1.00213878589189
C           31.83299118757920        4.82223024021876       -1.39918143221472
C           31.18428065242809        5.21530450295532       -2.57421688674908
C           31.14890449661841        6.54643659418788       -2.94685303442861
C           31.76444564770136        7.49552473146673       -2.13541472405002
N           31.72589514666807        8.89519675686752       -2.51883807599645
O           31.14982726361774        9.17889861638985       -3.53784100831785
O           32.27291011163979        9.68721406306233       -1.79468665393734
C           32.41585778546175        7.12564885111009       -0.96209061544274
C           32.44965841831916        5.79114189341809       -0.60120727664707
C           30.64579212858371        2.74370702979600       -0.78866989367354
C           29.34996697442798        3.39353127217338       -0.87493746385529
C           28.42880184824689        2.44442122706865       -0.61034305595273
N           30.49090393582458        1.43394223211379       -0.45368144812143
C           29.16318745572090        1.22123027786168       -0.35062956227136
C           28.52397747831503        0.00291034741221       -0.04340237470923
C           29.15751424423425       -1.21260353891540        0.27832117196638
C           28.51056405481357       -2.44192953246744        0.57187516934052
C           29.47471587584521       -3.36824342754519        0.85820619542375
C           30.74116764283281       -2.72846704275129        0.75545877560738
N           30.49824462867711       -1.43124212479767        0.39139153194998
C           32.00361764374551       -3.30136850441329        0.95078183429020
C           32.03185796408820       -4.71600196377054        1.38605830081870
C           32.67435456907845       -5.68453343760385        0.60797043423507
C           32.70122075354364       -7.00686359765944        1.01148700444297
C           32.08387514511090       -7.36534338671758        2.20668952540160
N           32.10998216707740       -8.75192182681985        2.63579484838586
O           32.69149568500627       -9.54159889085777        1.93647520290328
O           31.54703223028642       -9.02816632365342        3.66422377458200
C           31.44093434442467       -6.41689780591009        2.99733388765921
C           31.41568208377551       -5.09820237386245        2.58226392052346
C           33.22252370318962       -2.63836212277119        0.76798374781284
C           34.52668251559376       -3.23135453730833        1.02397838247338
C           35.44040910000697       -2.28650693948434        0.72599463576762
C           34.69592280284616       -1.11277305162973        0.30375378604694
N           33.36322091928430       -1.35829788226193        0.35165578078153
H           36.39506240038990        0.07347419011914       -0.09950328885987
H           36.42594796676335        2.57082713008528       -0.95650765363603
H           34.55197064994426        4.40711625697648       -1.46554965953133
H           32.63389341620239        0.85018113631401       -0.24929651497186
H           30.71969545557633        4.46564171034003       -3.20396875725756
H           30.65265855112998        6.85943291638083       -3.85759618869418
H           32.88353257412207        7.88386031056749       -0.34555977492425
H           32.94003905373285        5.49349343014574        0.31836106561057
H           29.18769700559733        4.43673276083838       -1.09200699184145
H           27.35546424743906        2.53987380009969       -0.57747717950942
H           27.44299454493826       -2.59059936070734        0.55809958115371
H           29.32437280785425       -4.40616589454307        1.10632247088858
H           31.22246791596126       -0.73966079054759        0.22730316449435
H           33.13850937586168       -5.39616799463897       -0.32788539268402
H           33.19070730014808       -7.76487961462620        0.41188604764324
H           30.97247892068249       -6.72008105471047        3.92595591298563
H           30.93143938534157       -4.34849925922074        3.19720475023631
H           34.69548462352683       -4.22942804268347        1.39477767620850
H           36.51571985773565       -2.34410136912444        0.78652260679176
C           18.18570145269040       -0.01920893140019       -0.04738134649508
C           19.41034633415955       -0.01524747742560       -0.05560797466493
C           20.75257827938149       -0.01513781810543       -0.05885440313837
C           21.98340332549688       -0.01258144517495       -0.05873786947111
C           23.32089451545397       -0.01524136049053       -0.05769288166349
C           24.55167557092165       -0.01714560441642       -0.05558533603394
C           25.89391206515310       -0.01531205500974       -0.05081282880907
C           27.11861762634611       -0.00998380788601       -0.04770030341761

          :  Hamiltonian                  GFN1-xTB          :
         :: total energy            -247.849014511866 Eh    ::
         :: gradient norm              0.000583244220 Eh/a0 ::
         :: HOMO-LUMO gap              1.036644055493 eV    ::
         :: SCC energy              -251.508719734707 Eh    ::
         :: repulsion energy           3.768152421866 Eh    ::

    * Orbital Energies and Occupations

         #    Occupation            Energy/Eh            Energy/eV
      -------------------------------------------------------------
         1        2.0000           -0.9226418             -25.1064
       ...           ...                  ...                  ...
       205        2.0000           -0.4449791             -12.1085
       206        2.0000           -0.4436265             -12.0717
       207        2.0000           -0.4428151             -12.0496
       208        2.0000           -0.4402586             -11.9800
       209        2.0000           -0.4402122             -11.9788
       210        2.0000           -0.4382799             -11.9262
       211        2.0000           -0.4382264             -11.9247
       212        2.0000           -0.4344931             -11.8232
       213        2.0000           -0.4272078             -11.6249
       214        2.0000           -0.4222669             -11.4905
       215        2.0000           -0.4220183             -11.4837
       216        2.0000           -0.4108460             -11.1797
       217        2.0000           -0.4024829             -10.9521 (HOMO)
       218                         -0.3643869              -9.9155 (LUMO)
       219                         -0.3605122              -9.8100
       220                         -0.3595174              -9.7830
       221                         -0.3537801              -9.6268
       222                         -0.3495394              -9.5115
       223                         -0.3494298              -9.5085
       224                         -0.3436491              -9.3512
       225                         -0.3436104              -9.3501
       226                         -0.3243534              -8.8261
       227                         -0.3198751              -8.7042
       228                         -0.3162678              -8.6061
       ...                                ...                  ...
       444                          1.5869312              43.1826
      -------------------------------------------------------------
                  HL-Gap            0.0380960 Eh            1.0366 eV

Wiberg/Mayer (AO) data.
largest (>0.10) Wiberg bond orders for each atom

     #   Z sym  total        # sym  WBO       # sym  WBO       # sym  WBO
 ---------------------------------------------------------------------------
     1   6 C    3.927 --    41 C    1.368     2 C    1.347    43 H    0.970
     2   6 C    3.900 --     1 C    1.347     3 C    1.228     6 N    1.169
     3   6 C    3.954 --     4 C    1.597     2 C    1.228    44 H    0.976
     4   6 C    3.958 --     3 C    1.597     5 C    1.232    45 H    0.974
     5   6 C    3.897 --     7 C    1.300     4 C    1.232     6 N    1.180
     6   7 N    3.471 --     5 C    1.180     2 C    1.169    46 H    0.873
     7   6 C    3.936 --    17 C    1.330     5 C    1.300     8 C    1.037
     8   6 C    3.984 --    16 C    1.383     9 C    1.382     7 C    1.037
     9   6 C    3.986 --    10 C    1.465     8 C    1.382    47 H    0.971
                            15 C    0.101
    10   6 C    3.987 --     9 C    1.465    11 C    1.386    48 H    0.965
                            16 C    0.101
    11   6 C    3.940 --    15 C    1.386    10 C    1.386    12 N    0.922
    12   7 N    3.865 --    13 O    1.454    14 O    1.453    11 C    0.922
    13   8 O    1.828 --    12 N    1.454    14 O    0.251
    14   8 O    1.828 --    12 N    1.453    13 O    0.251
    15   6 C    3.987 --    16 C    1.464    11 C    1.386    49 H    0.965
                             9 C    0.101
    16   6 C    3.986 --    15 C    1.464     8 C    1.383    50 H    0.971
                            10 C    0.101
    17   6 C    3.913 --     7 C    1.330    20 N    1.289    18 C    1.124
    18   6 C    3.965 --    19 C    1.711    17 C    1.124    51 H    0.973
    19   6 C    3.963 --    18 C    1.711    21 C    1.127    52 H    0.974
    20   7 N    3.021 --    21 C    1.342    17 C    1.289
    21   6 C    3.905 --    20 N    1.342    22 C    1.255    19 C    1.127
    22   6 C    3.938 --    21 C    1.255    23 C    1.251   123 C    1.193
    23   6 C    3.882 --    22 C    1.251    24 C    1.249    27 N    1.188
    24   6 C    3.959 --    25 C    1.583    23 C    1.249    53 H    0.974
    25   6 C    3.954 --    24 C    1.583    26 C    1.240    54 H    0.974
    26   6 C    3.898 --    28 C    1.304    25 C    1.240    27 N    1.169
    27   7 N    3.475 --    23 C    1.188    26 C    1.169    55 H    0.872
    28   6 C    3.922 --    38 C    1.318    26 C    1.304    29 C    1.039
    29   6 C    3.984 --    37 C    1.381    30 C    1.381    28 C    1.039
    30   6 C    3.985 --    31 C    1.465    29 C    1.381    56 H    0.971
                            36 C    0.101
    31   6 C    3.987 --    30 C    1.465    32 C    1.386    57 H    0.965
                            37 C    0.101
    32   6 C    3.939 --    31 C    1.386    36 C    1.386    33 N    0.922
    33   7 N    3.865 --    34 O    1.453    35 O    1.453    32 C    0.922
    34   8 O    1.828 --    33 N    1.453    35 O    0.251
    35   8 O    1.827 --    33 N    1.453    34 O    0.251
    36   6 C    3.987 --    37 C    1.465    32 C    1.386    58 H    0.965
                            30 C    0.101
    37   6 C    3.985 --    36 C    1.465    29 C    1.381    59 H    0.971
                            31 C    0.101
    38   6 C    3.929 --    42 N    1.320    28 C    1.318    39 C    1.115
    39   6 C    3.967 --    40 C    1.725    38 C    1.115    60 H    0.973
    40   6 C    3.966 --    39 C    1.725    41 C    1.115    61 H    0.975
    41   6 C    3.926 --     1 C    1.368    42 N    1.298    40 C    1.115
    42   7 N    3.011 --    38 C    1.320    41 C    1.298
    43   1 H    1.001 --     1 C    0.970
    44   1 H    0.997 --     3 C    0.976
    45   1 H    1.003 --     4 C    0.974
    46   1 H    0.985 --     6 N    0.873
    47   1 H    1.004 --     9 C    0.971
    48   1 H    1.006 --    10 C    0.965
    49   1 H    1.006 --    15 C    0.965
    50   1 H    1.003 --    16 C    0.971
    51   1 H    1.004 --    18 C    0.973
    52   1 H    1.002 --    19 C    0.974
    53   1 H    1.001 --    24 C    0.974
    54   1 H    1.003 --    25 C    0.974
    55   1 H    0.986 --    27 N    0.872
    56   1 H    1.004 --    30 C    0.971
    57   1 H    1.006 --    31 C    0.965
    58   1 H    1.006 --    36 C    0.965
    59   1 H    1.004 --    37 C    0.971
    60   1 H    1.004 --    39 C    0.973
    61   1 H    0.997 --    40 C    0.975
    62   6 C    3.927 --   102 C    1.368    63 C    1.347   104 H    0.970
    63   6 C    3.900 --    62 C    1.347    64 C    1.228    67 N    1.169
    64   6 C    3.954 --    65 C    1.597    63 C    1.228   105 H    0.976
    65   6 C    3.958 --    64 C    1.597    66 C    1.232   106 H    0.974
    66   6 C    3.897 --    68 C    1.300    65 C    1.232    67 N    1.180
    67   7 N    3.471 --    66 C    1.180    63 C    1.169   107 H    0.873
    68   6 C    3.936 --    78 C    1.330    66 C    1.300    69 C    1.037
    69   6 C    3.984 --    77 C    1.383    70 C    1.382    68 C    1.037
    70   6 C    3.986 --    71 C    1.465    69 C    1.382   108 H    0.971
                            76 C    0.101
    71   6 C    3.987 --    70 C    1.465    72 C    1.386   109 H    0.965
                            77 C    0.101
    72   6 C    3.940 --    76 C    1.386    71 C    1.386    73 N    0.922
    73   7 N    3.865 --    74 O    1.454    75 O    1.453    72 C    0.922
    74   8 O    1.828 --    73 N    1.454    75 O    0.251
    75   8 O    1.828 --    73 N    1.453    74 O    0.251
    76   6 C    3.987 --    77 C    1.464    72 C    1.386   110 H    0.965
                            70 C    0.101
    77   6 C    3.986 --    76 C    1.464    69 C    1.383   111 H    0.971
                            71 C    0.101
    78   6 C    3.913 --    68 C    1.330    81 N    1.289    79 C    1.124
    79   6 C    3.965 --    80 C    1.711    78 C    1.124   112 H    0.973
    80   6 C    3.963 --    79 C    1.711    82 C    1.127   113 H    0.974
    81   7 N    3.021 --    82 C    1.342    78 C    1.289
    82   6 C    3.905 --    81 N    1.342    83 C    1.255    80 C    1.127
    83   6 C    3.938 --    82 C    1.255    84 C    1.251   130 C    1.193
    84   6 C    3.882 --    83 C    1.251    85 C    1.249    88 N    1.188
    85   6 C    3.959 --    86 C    1.583    84 C    1.249   114 H    0.974
    86   6 C    3.954 --    85 C    1.583    87 C    1.240   115 H    0.974
    87   6 C    3.898 --    89 C    1.304    86 C    1.240    88 N    1.169
    88   7 N    3.475 --    84 C    1.188    87 C    1.169   116 H    0.872
    89   6 C    3.922 --    99 C    1.318    87 C    1.304    90 C    1.038
    90   6 C    3.984 --    98 C    1.381    91 C    1.381    89 C    1.038
    91   6 C    3.985 --    92 C    1.465    90 C    1.381   117 H    0.971
                            97 C    0.101
    92   6 C    3.987 --    91 C    1.465    93 C    1.386   118 H    0.965
                            98 C    0.101
    93   6 C    3.939 --    92 C    1.386    97 C    1.386    94 N    0.922
    94   7 N    3.865 --    95 O    1.453    96 O    1.453    93 C    0.922
    95   8 O    1.828 --    94 N    1.453    96 O    0.251
    96   8 O    1.827 --    94 N    1.453    95 O    0.251
    97   6 C    3.987 --    98 C    1.465    93 C    1.386   119 H    0.965
                            91 C    0.101
    98   6 C    3.985 --    97 C    1.465    90 C    1.381   120 H    0.971
                            92 C    0.101
    99   6 C    3.929 --   103 N    1.320    89 C    1.318   100 C    1.115
   100   6 C    3.967 --   101 C    1.725    99 C    1.115   121 H    0.973
   101   6 C    3.966 --   100 C    1.725   102 C    1.115   122 H    0.975
   102   6 C    3.926 --    62 C    1.368   103 N    1.298   101 C    1.115
   103   7 N    3.011 --    99 C    1.320   102 C    1.298
   104   1 H    1.001 --    62 C    0.970
   105   1 H    0.997 --    64 C    0.976
   106   1 H    1.003 --    65 C    0.974
   107   1 H    0.985 --    67 N    0.873
   108   1 H    1.004 --    70 C    0.971
   109   1 H    1.006 --    71 C    0.965
   110   1 H    1.006 --    76 C    0.965
   111   1 H    1.003 --    77 C    0.971
   112   1 H    1.004 --    79 C    0.973
   113   1 H    1.002 --    80 C    0.974
   114   1 H    1.001 --    85 C    0.974
   115   1 H    1.003 --    86 C    0.974
   116   1 H    0.986 --    88 N    0.872
   117   1 H    1.004 --    91 C    0.971
   118   1 H    1.006 --    92 C    0.965
   119   1 H    1.006 --    97 C    0.965
   120   1 H    1.004 --    98 C    0.971
   121   1 H    1.004 --   100 C    0.973
   122   1 H    0.997 --   101 C    0.975
   123   6 C    3.878 --   124 C    2.437    22 C    1.193   126 C    0.186
   124   6 C    3.933 --   123 C    2.437   125 C    1.345
   125   6 C    3.893 --   126 C    2.334   124 C    1.345   128 C    0.182
   126   6 C    3.924 --   125 C    2.334   127 C    1.371   123 C    0.186
   127   6 C    3.924 --   128 C    2.334   126 C    1.371   130 C    0.186
   128   6 C    3.893 --   127 C    2.334   129 C    1.345   125 C    0.182
   129   6 C    3.933 --   130 C    2.437   128 C    1.345
   130   6 C    3.878 --   129 C    2.437    83 C    1.193   127 C    0.186
 ---------------------------------------------------------------------------

           -------------------------------------------------
          | TOTAL ENERGY             -247.849014511866 Eh   |
          | GRADIENT NORM               0.000583244220 Eh/α |
          | HOMO-LUMO GAP               1.036644055493 eV   |
           -------------------------------------------------

 * finished run on 2022/07/30 at 15:36:20.125
