   * xtb version 6.5.1 (b24c23e) compiled by 'conda@728c89f4b128' on 2022-07-12
          program call               : xtb DMA_C2_2.xyz --gfn 1 --opt -T 48

   ID    Z sym.   atoms
    1    6 C      1-5, 7-11, 13-19, 21-26, 28-32, 34-41, 74-78, 80-84, 86-92,
                  94-99, 101-105, 107-114, 147, 148
    2    7 N      6, 12, 20, 27, 33, 42, 79, 85, 93, 100, 106, 115
    3    1 H      43-73, 116-146
########################################################################
[WARNING] Please study the warnings concerning your input carefully
-1- prog_main_parseArguments: Unknown option '-T' provided
########################################################################

          :  Hamiltonian                  GFN1-xTB          :
 * total energy  :  -227.4732436 Eh     change       -0.7947563E-08 Eh
 * total energy  :  -227.8388382 Eh     change       -0.3655945E+00 Eh
 * total energy  :  -227.9456819 Eh     change       -0.1068437E+00 Eh
 * total energy  :  -227.9898225 Eh     change       -0.4414060E-01 Eh
 * total energy  :  -228.0067752 Eh     change       -0.1695273E-01 Eh
 * total energy  :  -228.0162240 Eh     change       -0.9448855E-02 Eh
 * total energy  :  -228.0203782 Eh     change       -0.4154134E-02 Eh
 * total energy  :  -228.0228325 Eh     change       -0.2454362E-02 Eh
 * total energy  :  -228.0246809 Eh     change       -0.1848330E-02 Eh
 * total energy  :  -228.0261425 Eh     change       -0.1461590E-02 Eh
 * total energy  :  -228.0370185 Eh     change       -0.1364615E-04 Eh
 * total energy  :  -228.0370332 Eh     change       -0.1468840E-04 Eh
 * total energy  :  -228.0370486 Eh     change       -0.1546623E-04 Eh
 * total energy  :  -228.0370657 Eh     change       -0.1710472E-04 Eh
 * total energy  :  -228.0370864 Eh     change       -0.2068851E-04 Eh
 * total energy  :  -228.0371114 Eh     change       -0.2497220E-04 Eh
 * total energy  :  -228.0371364 Eh     change       -0.2502518E-04 Eh
 * total energy  :  -228.0371553 Eh     change       -0.1885001E-04 Eh
 * total energy  :  -228.0371589 Eh     change       -0.3672371E-05 Eh
   *** GEOMETRY OPTIMIZATION CONVERGED AFTER 94 ITERATIONS ***

 final structure:
================
148
 xtb: 6.5.1 (b24c23e)
C           16.03011391392719       -0.23044363682578        0.09744932637233
C           16.64298329191275       -0.43077020062115        1.32788830692633
C           15.99478779037710       -0.60461311163917        2.58204932323327
C           16.96060217164925       -0.74231044683311        3.53979521438767
C           18.22991320450155       -0.67375971773517        2.89889486418854
N           17.98712887778170       -0.47572990860230        1.56862520290718
C           19.49623777422843       -0.78128413303801        3.48643254402187
C           19.53900392527935       -1.03230866620152        4.94419185915278
C           20.21153819656397       -0.15575794811863        5.79832257599442
C           20.23599370047094       -0.36264676017324        7.16524152557059
C           19.58972955543123       -1.46789538577518        7.73902791130654
N           19.65325537265593       -1.70787579403124        9.10936716928623
C           19.98634649963519       -0.57463820213182        9.97352135733958
C           18.65106708406782       -2.61073023558043        9.67753107294302
C           18.93707930552564       -2.36173536371972        6.87680684579557
C           18.90785804787708       -2.14065753825983        5.51172173139851
C           20.70779293983997       -0.66681470851235        2.79689227484232
C           22.00091787567014       -0.93114530528453        3.39885129819791
C           22.92028806847849       -0.72850552393904        2.43190511290367
N           20.86317876861384       -0.32822505309917        1.48737434996199
C           22.19097814814941       -0.33541987087673        1.24379999436841
C           22.82888097875890       -0.00713928657342        0.02959719998798
C           22.18274059896153        0.31051568906657       -1.18118201667376
C           22.81440606092502        0.63797961952750       -2.40887835918167
C           21.84191956473760        0.81327248166377       -3.35405191570093
C           20.58108426704066        0.61464285964159       -2.72803629556642
N           20.83866891244453        0.31886042262718       -1.41467516669025
C           19.31967762825373        0.65623203478669       -3.33475814914456
C           19.28161503958884        0.97841384122701       -4.77926052782106
C           19.79812860281238        2.18055773630546       -5.26618717862859
C           19.76218262316291        2.48216567602104       -6.61539839309379
C           19.21631227340091        1.58141955091519       -7.54237002779127
N           19.13645180139917        1.90617589793259       -8.89402411754431
C           18.88379466546412        0.81461402386492       -9.83488307692840
C           20.06911643167966        2.91716376741185       -9.39485372208375
C           18.69070477467434        0.37752994755662       -7.05004640708978
C           18.72279704041969        0.08806984718763       -5.69797819067559
C           18.10842670920987        0.41687054509858       -2.67555738041658
C           16.80110694319086        0.52977686980105       -3.30330825974289
C           15.89095434885793        0.27387895284002       -2.34170956532607
C           16.64014314152362        0.01723864953429       -1.12510897431864
N           17.97175678517853        0.10764889704716       -1.36434529367652
H           14.94481310318378       -0.24604536708321        0.10701015463680
H           14.92550974102642       -0.60990614217432        2.72240723614233
H           16.81027790601276       -0.86759986808277        4.59984674352661
H           18.70995458527488       -0.36375071770528        0.86567229794709
H           20.70402107268879        0.71800981393815        5.38537786104483
H           20.76779441212143        0.35139934241544        7.78079382207949
H           19.30194440306932        0.26641573676569        9.81580874278995
H           19.92624374046160       -0.89406359346560       11.01338284124274
H           21.00938017613857       -0.25257586968309        9.77710725191162
H           17.63332345823377       -2.28617883505527        9.43396270313957
H           18.81102870114663       -3.62046121602237        9.29820106582415
H           18.76945562626499       -2.63346298070427       10.76027055212143
H           18.44741377854550       -3.24698714871019        7.26180451861069
H           18.40528355129959       -2.85687962293147        4.87047463639625
H           22.16160173683668       -1.25721802837758        4.41375598951629
H           23.98947341961022       -0.84789368981536        2.49096019870267
H           23.87892709192368        0.72584167585505       -2.54701484099986
H           21.98591961351619        1.04651962704827       -4.39631755332755
H           20.12276499485095        0.11580205161775       -0.72477508537673
H           20.21310841868442        2.90413837279815       -4.57272263543217
H           20.15823629557560        3.43688953313330       -6.93688924590378
H           18.90548934105062        1.21150730099152      -10.84930309048585
H           19.63387348365285        0.02105792484567       -9.74349366786537
H           17.89151906958001        0.39992553088420       -9.65484734057145
H           19.82851893731181        3.88701932377581       -8.95834264166917
H           19.95830301534010        2.99600472714873      -10.47573963819503
H           21.10688653810704        2.65791796186566       -9.15776999881507
H           18.24910723243250       -0.35090537099798       -7.71777394558540
H           18.32770701634891       -0.86022232446899       -5.34991185133322
H           16.62543367125384        0.79087848400528       -4.33450790172213
H           14.81454178543554        0.26624762229038       -2.41542211324711
C           33.66608945320169       -0.20120771224938       -0.14873010069935
C           33.05322402746990       -0.10763638208337       -1.39185549814373
C           33.70142142359484        0.01724100106908       -2.65183327690540
C           32.73560832840377        0.10779695211274       -3.61518203232832
C           31.46629681546598        0.02426596532564       -2.97606338253173
N           31.70907881381450       -0.09493228016150       -1.63642689426458
C           30.19997260329495        0.05741563317652       -3.57243893483338
C           30.15720717606554        0.15494970298005       -5.04843455480594
C           29.48468289480343        1.20723873386338       -5.67339923307770
C           29.46022658955118        1.32639648786395       -7.05074142343810
C           30.10647943079143        0.38635541329228       -7.86752914884467
N           30.04295629696286        0.47414555606531       -9.25595103219324
C           29.70986158519558        1.77831839635115       -9.83051264790929
C           31.04515969887080       -0.27043179874457      -10.01984369862213
C           30.75911705381831       -0.68463904681366       -7.23875060187170
C           30.78834027881593       -0.78957271837579       -5.85986629443673
C           28.98841737325053        0.00713746300625       -2.87527318226552
C           27.69529260659287       -0.10877855612931       -3.52241193945450
C           26.77592180073872       -0.13834821633017       -2.53490400843618
N           28.83303186717936        0.02943996602721       -1.52287366395006
C           27.50523139725476       -0.03460751259483       -1.28776796182335
C           26.86732412835283        0.00001272272140       -0.03044832464055
C           27.51345962289094        0.02510279196603        1.22105768175806
C           26.88179209746507        0.05575100681408        2.49130529596014
C           27.85427794943669        0.00468459747856        3.45123999132048
C           29.11511455667775       -0.04171248475425        2.79611095917625
N           28.85753132419860       -0.02149617400529        1.45000680096469
C           30.37652144337001       -0.14344824049291        3.39568616709683
C           30.41458294438168       -0.16870857464393        4.87546633963309
C           29.89806433912129        0.88587748809017        5.63051006633062
C           29.93400942776478        0.86295893935001        7.01283113900923
C           30.47988127172152       -0.22990857534229        7.70294630529911
N           30.55973696811378       -0.23089464414868        9.09306742326400
C           30.81239623027632       -1.51252047254344        9.75197378149315
C           29.62705901983600        0.63459421472012        9.81682988123698
C           31.00549365483286       -1.28492734108799        6.94224764450359
C           30.97340400374243       -1.24952886845978        5.55999429752184
C           31.58777240871645       -0.22167937034667        2.69875020633945
C           32.89509152853843       -0.25902325393465        3.33548215162796
C           33.80524501356619       -0.28247096587060        2.34069371790596
C           33.05605721687557       -0.24689165464815        1.09782693048077
N           31.72444297616899       -0.21506261050830        1.35158651751152
H           34.75139032660742       -0.21413889102722       -0.16167722698134
H           34.77069973732193        0.04498766106008       -2.78952233188305
H           32.88593358089736        0.23439171294093       -4.67507841196208
H           30.98625124366312       -0.15078814033165       -0.92680760271989
H           28.99220914362430        1.95992877289123       -5.06721443993568
H           28.92843471493662        2.16480264084839       -7.48184558732432
H           30.39426576703939        2.55900413461194       -9.48012432767634
H           29.76995755545220        1.71143914818069      -10.91627158455127
H           28.68682949516019        2.04539165129936       -9.56409653790237
H           32.06289720073766       -0.01198165683754       -9.70699372567022
H           30.88520502688172       -1.34093762492412       -9.88767979278668
H           30.92678269324321       -0.03882200659939      -11.07776675076399
H           31.24876976233730       -1.45504359244444       -7.82045798665073
H           31.29090609793631       -1.63611413249765       -5.40429151553971
H           27.53460861865236       -0.18795495407819       -4.58546696669972
H           25.70673511953261       -0.24055782545290       -2.62029025385417
H           25.81727063251076        0.10879361398548        2.64618338079972
H           27.71027679977522       -0.01280155942868        4.51914257747679
H           29.57343663913631       -0.05722925778956        0.73173377069245
H           29.48308249437842        1.75179781038063        5.12588913925792
H           29.53795445699314        1.71577732978306        7.54907133383004
H           30.79068298085489       -1.36436595512825       10.83115016128974
H           30.06232904272024       -2.26257892549254        9.47717771124755
H           31.80467968955029       -1.87347053507954        9.47979920659609
H           29.86765674871440        1.67973130290655        9.61972544386401
H           29.73785623857580        0.45797381983504       10.88610016754616
H           28.58929411267627        0.43811487439812        9.52558488856836
H           31.44709379749239       -2.14953677848890        7.42071038201518
H           31.36849676374358       -2.08986763158788        4.99942588182962
H           33.07076244597284       -0.24681906402705        4.39915435922048
H           34.88165789099104       -0.30715859009939        2.41056639595811
C           24.23913241415669       -0.00470600082970        0.00862983085113
C           25.45707250406015       -0.00255869591726       -0.00950815941362

          :  Hamiltonian                  GFN1-xTB          :
         :: total energy            -228.037158934678 Eh    ::
         :: gradient norm              0.000383352379 Eh/a0 ::
         :: HOMO-LUMO gap              0.931789551403 eV    ::
         :: SCC energy              -231.591350141296 Eh    ::
         :: repulsion energy           3.674140854109 Eh    ::

    * Orbital Energies and Occupations

         #    Occupation            Energy/Eh            Energy/eV
      -------------------------------------------------------------
         1        2.0000           -0.7910287             -21.5250
       ...           ...                  ...                  ...
       197        2.0000           -0.4067599             -11.0685
       198        2.0000           -0.4040700             -10.9953
       199        2.0000           -0.4039696             -10.9926
       200        2.0000           -0.4024910             -10.9523
       201        2.0000           -0.4024714             -10.9518
       202        2.0000           -0.3876950             -10.5497
       203        2.0000           -0.3872259             -10.5370
       204        2.0000           -0.3866250             -10.5206
       205        2.0000           -0.3840648             -10.4509
       206        2.0000           -0.3829875             -10.4216
       207        2.0000           -0.3829683             -10.4211
       208        2.0000           -0.3734445             -10.1619
       209        2.0000           -0.3630112              -9.8780 (HOMO)
       210                         -0.3287686              -8.9462 (LUMO)
       211                         -0.3178800              -8.6500
       212                         -0.3178010              -8.6478
       213                         -0.3125340              -8.5045
       214                         -0.2858945              -7.7796
       215                         -0.2770550              -7.5390
       216                         -0.2527499              -6.8777
       217                         -0.2527473              -6.8776
       218                         -0.2520697              -6.8592
       219                         -0.2520685              -6.8591
       220                         -0.2418771              -6.5818
       ...                                ...                  ...
       468                          1.3439195              36.5699
      -------------------------------------------------------------
                  HL-Gap            0.0342426 Eh            0.9318 eV

Wiberg/Mayer (AO) data.
largest (>0.10) Wiberg bond orders for each atom

     #   Z sym  total        # sym  WBO       # sym  WBO       # sym  WBO
 ---------------------------------------------------------------------------
     1   6 C    3.922 --    41 C    1.366     2 C    1.344    43 H    0.971
     2   6 C    3.903 --     1 C    1.344     3 C    1.233     6 N    1.170
     3   6 C    3.951 --     4 C    1.590     2 C    1.233    44 H    0.977
     4   6 C    3.959 --     3 C    1.590     5 C    1.238    45 H    0.974
     5   6 C    3.894 --     7 C    1.300     4 C    1.238     6 N    1.175
     6   7 N    3.467 --     5 C    1.175     2 C    1.170    46 H    0.874
     7   6 C    3.938 --    17 C    1.328     5 C    1.300     8 C    1.040
     8   6 C    3.988 --    16 C    1.377     9 C    1.375     7 C    1.040
     9   6 C    3.986 --    10 C    1.473     8 C    1.375    47 H    0.972
    10   6 C    3.989 --     9 C    1.473    11 C    1.342    48 H    0.968
    11   6 C    3.950 --    15 C    1.343    10 C    1.342    12 N    1.108
    12   7 N    3.217 --    11 C    1.108    13 C    0.964    14 C    0.964
    13   6 C    3.969 --    50 H    0.985    51 H    0.983    49 H    0.983
                            12 N    0.964
    14   6 C    3.969 --    54 H    0.985    52 H    0.983    53 H    0.983
                            12 N    0.964
    15   6 C    3.989 --    16 C    1.472    11 C    1.343    55 H    0.968
    16   6 C    3.986 --    15 C    1.472     8 C    1.377    56 H    0.972
    17   6 C    3.914 --     7 C    1.328    20 N    1.290    18 C    1.129
    18   6 C    3.965 --    19 C    1.702    17 C    1.129    57 H    0.974
    19   6 C    3.964 --    18 C    1.702    21 C    1.133    58 H    0.968
    20   7 N    3.019 --    21 C    1.340    17 C    1.290
    21   6 C    3.914 --    20 N    1.340    22 C    1.257    19 C    1.133
    22   6 C    3.935 --    21 C    1.257    23 C    1.253   147 C    1.182
    23   6 C    3.890 --    22 C    1.253    24 C    1.252    27 N    1.187
    24   6 C    3.959 --    25 C    1.578    23 C    1.252    59 H    0.969
    25   6 C    3.955 --    24 C    1.578    26 C    1.245    60 H    0.974
    26   6 C    3.897 --    28 C    1.305    25 C    1.245    27 N    1.166
    27   7 N    3.472 --    23 C    1.187    26 C    1.166    61 H    0.873
    28   6 C    3.924 --    38 C    1.318    26 C    1.305    29 C    1.038
    29   6 C    3.987 --    37 C    1.377    30 C    1.377    28 C    1.038
    30   6 C    3.986 --    31 C    1.472    29 C    1.377    62 H    0.972
    31   6 C    3.989 --    30 C    1.472    32 C    1.342    63 H    0.968
    32   6 C    3.950 --    36 C    1.343    31 C    1.342    33 N    1.108
    33   7 N    3.217 --    32 C    1.108    34 C    0.964    35 C    0.963
    34   6 C    3.969 --    64 H    0.985    66 H    0.983    65 H    0.983
                            33 N    0.964
    35   6 C    3.969 --    68 H    0.985    69 H    0.983    67 H    0.983
                            33 N    0.963
    36   6 C    3.989 --    37 C    1.472    32 C    1.343    70 H    0.968
    37   6 C    3.987 --    36 C    1.472    29 C    1.377    71 H    0.972
    38   6 C    3.927 --    28 C    1.318    42 N    1.318    39 C    1.120
    39   6 C    3.967 --    40 C    1.719    38 C    1.120    72 H    0.973
    40   6 C    3.965 --    39 C    1.719    41 C    1.119    73 H    0.976
    41   6 C    3.930 --     1 C    1.366    42 N    1.299    40 C    1.119
    42   7 N    3.009 --    38 C    1.318    41 C    1.299
    43   1 H    1.002 --     1 C    0.971
    44   1 H    0.998 --     3 C    0.977
    45   1 H    1.006 --     4 C    0.974
    46   1 H    0.986 --     6 N    0.874
    47   1 H    1.006 --     9 C    0.972
    48   1 H    1.002 --    10 C    0.968
    49   1 H    1.003 --    13 C    0.983
    50   1 H    1.009 --    13 C    0.985
    51   1 H    1.013 --    13 C    0.983
    52   1 H    1.003 --    14 C    0.983
    53   1 H    1.013 --    14 C    0.983
    54   1 H    1.009 --    14 C    0.985
    55   1 H    1.002 --    15 C    0.968
    56   1 H    1.005 --    16 C    0.972
    57   1 H    1.005 --    18 C    0.974
    58   1 H    1.007 --    19 C    0.968
    59   1 H    1.007 --    24 C    0.969
    60   1 H    1.006 --    25 C    0.974
    61   1 H    0.988 --    27 N    0.873
    62   1 H    1.005 --    30 C    0.972
    63   1 H    1.002 --    31 C    0.968
    64   1 H    1.009 --    34 C    0.985
    65   1 H    1.003 --    34 C    0.983
    66   1 H    1.013 --    34 C    0.983
    67   1 H    1.013 --    35 C    0.983
    68   1 H    1.009 --    35 C    0.985
    69   1 H    1.003 --    35 C    0.983
    70   1 H    1.002 --    36 C    0.968
    71   1 H    1.005 --    37 C    0.972
    72   1 H    1.006 --    39 C    0.973
    73   1 H    0.999 --    40 C    0.976
    74   6 C    3.922 --   114 C    1.366    75 C    1.344   116 H    0.971
    75   6 C    3.903 --    74 C    1.344    76 C    1.233    79 N    1.170
    76   6 C    3.951 --    77 C    1.590    75 C    1.233   117 H    0.977
    77   6 C    3.959 --    76 C    1.590    78 C    1.238   118 H    0.974
    78   6 C    3.894 --    80 C    1.300    77 C    1.238    79 N    1.175
    79   7 N    3.467 --    78 C    1.175    75 C    1.170   119 H    0.874
    80   6 C    3.938 --    90 C    1.328    78 C    1.300    81 C    1.040
    81   6 C    3.988 --    89 C    1.377    82 C    1.375    80 C    1.040
    82   6 C    3.986 --    83 C    1.473    81 C    1.375   120 H    0.972
    83   6 C    3.989 --    82 C    1.473    84 C    1.342   121 H    0.968
    84   6 C    3.950 --    88 C    1.343    83 C    1.342    85 N    1.108
    85   7 N    3.217 --    84 C    1.108    86 C    0.964    87 C    0.964
    86   6 C    3.969 --   123 H    0.985   124 H    0.983   122 H    0.983
                            85 N    0.964
    87   6 C    3.969 --   127 H    0.985   125 H    0.983   126 H    0.983
                            85 N    0.964
    88   6 C    3.989 --    89 C    1.472    84 C    1.343   128 H    0.968
    89   6 C    3.986 --    88 C    1.472    81 C    1.377   129 H    0.972
    90   6 C    3.914 --    80 C    1.328    93 N    1.290    91 C    1.129
    91   6 C    3.965 --    92 C    1.702    90 C    1.129   130 H    0.974
    92   6 C    3.964 --    91 C    1.702    94 C    1.133   131 H    0.968
    93   7 N    3.019 --    94 C    1.340    90 C    1.290
    94   6 C    3.914 --    93 N    1.340    95 C    1.257    92 C    1.133
    95   6 C    3.935 --    94 C    1.257    96 C    1.253   148 C    1.182
    96   6 C    3.890 --    95 C    1.253    97 C    1.252   100 N    1.187
    97   6 C    3.959 --    98 C    1.578    96 C    1.252   132 H    0.969
    98   6 C    3.955 --    97 C    1.578    99 C    1.245   133 H    0.974
    99   6 C    3.897 --   101 C    1.305    98 C    1.245   100 N    1.166
   100   7 N    3.472 --    96 C    1.187    99 C    1.166   134 H    0.873
   101   6 C    3.924 --   111 C    1.318    99 C    1.305   102 C    1.038
   102   6 C    3.987 --   110 C    1.377   103 C    1.377   101 C    1.038
   103   6 C    3.986 --   104 C    1.472   102 C    1.377   135 H    0.972
   104   6 C    3.989 --   103 C    1.472   105 C    1.342   136 H    0.968
   105   6 C    3.950 --   109 C    1.343   104 C    1.342   106 N    1.108
   106   7 N    3.217 --   105 C    1.108   107 C    0.964   108 C    0.963
   107   6 C    3.969 --   137 H    0.985   139 H    0.983   138 H    0.983
                           106 N    0.964
   108   6 C    3.969 --   141 H    0.985   142 H    0.983   140 H    0.983
                           106 N    0.963
   109   6 C    3.989 --   110 C    1.472   105 C    1.343   143 H    0.968
   110   6 C    3.987 --   109 C    1.472   102 C    1.377   144 H    0.972
   111   6 C    3.927 --   101 C    1.318   115 N    1.318   112 C    1.120
   112   6 C    3.967 --   113 C    1.719   111 C    1.120   145 H    0.973
   113   6 C    3.965 --   112 C    1.719   114 C    1.119   146 H    0.976
   114   6 C    3.930 --    74 C    1.366   115 N    1.299   113 C    1.119
   115   7 N    3.009 --   111 C    1.318   114 C    1.299
   116   1 H    1.002 --    74 C    0.971
   117   1 H    0.998 --    76 C    0.977
   118   1 H    1.006 --    77 C    0.974
   119   1 H    0.986 --    79 N    0.874
   120   1 H    1.006 --    82 C    0.972
   121   1 H    1.002 --    83 C    0.968
   122   1 H    1.003 --    86 C    0.983
   123   1 H    1.009 --    86 C    0.985
   124   1 H    1.013 --    86 C    0.983
   125   1 H    1.003 --    87 C    0.983
   126   1 H    1.013 --    87 C    0.983
   127   1 H    1.009 --    87 C    0.985
   128   1 H    1.002 --    88 C    0.968
   129   1 H    1.005 --    89 C    0.972
   130   1 H    1.005 --    91 C    0.974
   131   1 H    1.007 --    92 C    0.968
   132   1 H    1.007 --    97 C    0.969
   133   1 H    1.006 --    98 C    0.974
   134   1 H    0.988 --   100 N    0.873
   135   1 H    1.005 --   103 C    0.972
   136   1 H    1.002 --   104 C    0.968
   137   1 H    1.009 --   107 C    0.985
   138   1 H    1.003 --   107 C    0.983
   139   1 H    1.013 --   107 C    0.983
   140   1 H    1.013 --   108 C    0.983
   141   1 H    1.009 --   108 C    0.985
   142   1 H    1.003 --   108 C    0.983
   143   1 H    1.002 --   109 C    0.968
   144   1 H    1.005 --   110 C    0.972
   145   1 H    1.006 --   112 C    0.973
   146   1 H    0.999 --   113 C    0.976
   147   6 C    3.932 --   148 C    2.573    22 C    1.182
   148   6 C    3.932 --   147 C    2.573    95 C    1.182
 ---------------------------------------------------------------------------

           -------------------------------------------------
          | TOTAL ENERGY             -228.037158934678 Eh   |
          | GRADIENT NORM               0.000383352379 Eh/α |
          | HOMO-LUMO GAP               0.931789551403 eV   |
           -------------------------------------------------

 * finished run on 2022/07/28 at 05:51:31.657
