   * xtb version 6.5.1 (b24c23e) compiled by 'conda@728c89f4b128' on 2022-07-12
          program call               : xtb Zn_Ph_C2_2.xyz --gfn 1 --opt -T 48

   ID    Z sym.   atoms
    1   30 Zn     1, 57
    2    6 C      2-6, 8-11, 13-29, 32-37, 58-62, 64-67, 69-85, 88-93, 113,
                  114
    3    7 N      7, 12, 30, 31, 63, 68, 86, 87
    4    1 H      38-56, 94-112
########################################################################
[WARNING] Please study the warnings concerning your input carefully
-1- prog_main_parseArguments: Unknown option '-T' provided
########################################################################

          :  Hamiltonian                  GFN1-xTB          :
 * total energy  :  -186.9213721 Eh     change       -0.5420020E-10 Eh
 * total energy  :  -186.9964287 Eh     change       -0.7505656E-01 Eh
 * total energy  :  -187.0367840 Eh     change       -0.4035533E-01 Eh
 * total energy  :  -187.0446813 Eh     change       -0.7897247E-02 Eh
 * total energy  :  -187.0496418 Eh     change       -0.4960501E-02 Eh
 * total energy  :  -187.0521487 Eh     change       -0.2506958E-02 Eh
 * total energy  :  -187.0535881 Eh     change       -0.1439392E-02 Eh
 * total energy  :  -187.0543890 Eh     change       -0.8009275E-03 Eh
 * total energy  :  -187.0549171 Eh     change       -0.5280308E-03 Eh
 * total energy  :  -187.0553643 Eh     change       -0.4472616E-03 Eh
 * total energy  :  -187.0577992 Eh     change       -0.2560910E-04 Eh
 * total energy  :  -187.0578255 Eh     change       -0.2628332E-04 Eh
 * total energy  :  -187.0578472 Eh     change       -0.2173306E-04 Eh
 * total energy  :  -187.0578616 Eh     change       -0.1430821E-04 Eh
 * total energy  :  -187.0578714 Eh     change       -0.9800977E-05 Eh
 * total energy  :  -187.0578821 Eh     change       -0.1074304E-04 Eh
 * total energy  :  -187.0578933 Eh     change       -0.1117521E-04 Eh
 * total energy  :  -187.0579028 Eh     change       -0.9488895E-05 Eh
 * total energy  :  -187.0579074 Eh     change       -0.4658720E-05 Eh
   *** GEOMETRY OPTIMIZATION CONVERGED AFTER 44 ITERATIONS ***

 final structure:
================
114
 xtb: 6.5.1 (b24c23e)
Zn          15.29482344468588       -0.05168738671447       -0.00558736414617
C           11.87725313073620       -0.08293792525827       -0.01075591892026
C           12.50868159635845       -1.31988855098375       -0.05822083503069
C           11.83734791413174       -2.58953292137215       -0.07610836662964
C           12.79848043550199       -3.54636936107625       -0.10269419326323
C           14.06950953072714       -2.87152478961257       -0.10923622225682
N           13.85835209746616       -1.52437093030431       -0.07619719906310
C           15.32174545706834       -3.49592439897717       -0.11309287577680
C           16.56034777358443       -2.84634462324784       -0.07505059210118
C           17.83533518107923       -3.50495433963834       -0.11740674104367
C           18.78452870075160       -2.53613859341105       -0.08213622494929
N           16.76177857888237       -1.49192032448816       -0.02584786609873
C           18.10651837011356       -1.27587885564310       -0.02757217789217
C           18.74751036472242       -0.01895023172409       -0.00256024080651
C           18.08378253724858        1.22620256472991        0.02151805247659
C           18.73748711094004        2.50034273372084        0.00654622457225
C           17.77033206351908        3.45143953920906        0.03743049356160
C           16.50869967831500        2.76719388843360        0.07860557262886
C           15.25795144718093        3.39428486486962        0.10968368068177
C           15.24737288619207        4.87797943641990        0.17124426640209
C           14.67307154974880        5.62765304569382       -0.85613759383206
C           14.66716138910617        7.01320501610111       -0.79507390075408
C           15.23023768426938        7.66687205090315        0.29254241793634
C           15.80164615741274        6.92845550248506        1.31997574037872
C           15.81249671775929        5.54306737915823        1.26043052762787
C           14.01752842380124        2.74652023904062        0.09032501741703
C           12.73409874447506        3.39365717141064        0.16111982774047
C           11.79140871755627        2.41910905951516        0.12095965561179
C           12.48648747201006        1.16518591484216        0.03624558235254
N           13.83200808946184        1.39662994026813        0.02411188888470
N           16.73564745316417        1.41642885061529        0.05684931050947
C           15.33556050597174       -4.98047990945210       -0.16624331680281
C           14.81622718005812       -5.65054411014955       -1.27467024714696
C           14.83131666330737       -7.03628104458333       -1.32765902197703
C           15.35963486808894       -7.76940868206482       -0.27377083109756
C           15.87493339214872       -7.11036412917974        0.83415487820418
C           15.86576223541491       -5.72454261687092        0.88838039452271
H           10.79173987865213       -0.09300443900522        0.00187008654947
H           10.76645917488946       -2.71978140582838       -0.06240370576346
H           12.66443599254122       -4.61634521879169       -0.10523514325486
H           17.98455616713620       -4.57083656096308       -0.17855411220273
H           19.85350989433483       -2.66128391151051       -0.09834596735599
H           19.80316264013972        2.64703758178718       -0.03249122037823
H           17.89908432007995        4.52158719549699        0.01864801218422
H           14.24493003680333        5.11970329979755       -1.71325681368240
H           14.22209155399148        7.58539205593785       -1.60164164981853
H           15.22407033690599        8.75000109699667        0.33934621567818
H           16.24065753010878        7.43385959281863        2.17313512711525
H           16.24832617769265        4.96757155597528        2.06965541155093
H           12.57920099193783        4.45760223618536        0.24323202068769
H           10.71843151037950        2.52706443248536        0.15281869773775
H           14.41409331986495       -5.07905545154973       -2.10392463202068
H           14.43040976171221       -7.54586618161069       -2.19690118513522
H           15.36983819249183       -8.85270156652672       -0.31594195089680
H           16.28531763560432       -7.67849079345360        1.66171601967634
H           16.25801092771007       -5.21190922696885        1.75974063554753
Zn          26.24430138291161        0.05188733777634       -0.00337812878024
C           29.66187133919573        0.08330463226767       -0.00716340638172
C           29.03046215664038        1.32115877943419       -0.00088074396315
C           29.70180999063116        2.59037427596790        0.03640410124137
C           28.74068545447415        3.54747251466086        0.05137122232183
C           27.46965063573835        2.87356287012904        0.01549735681338
N           27.68079576785578        1.52624460283471       -0.00997073482966
C           26.21741662754438        3.49755176937686        0.03873178479033
C           24.97881567817744        2.84693493806010        0.04854646076932
C           23.70381935763601        3.50675118157668        0.03497960762500
C           22.75462972325975        2.53730978660651        0.02835212042728
N           24.77738693396334        1.49165269295195        0.03897176339094
C           23.43265039671461        1.27586427514685        0.02819478786799
C           22.79161182592675        0.01901589594818       -0.00114072289326
C           23.45529314080194       -1.22599097499830       -0.03141225361334
C           22.80159279130555       -2.49826900490804       -0.10173684582407
C           23.76875141172820       -3.44980082988567       -0.11239489255235
C           25.03038528670060       -2.76798086255470       -0.04169955233196
C           26.28113321164616       -3.39583316431384       -0.03789875764604
C           26.29172040411107       -4.88080518749256       -0.04077095764139
C           26.86603511537650       -5.58517021893325       -1.09972259804127
C           26.87195847698458       -6.97206696695639       -1.09886575812234
C           26.30888608715221       -7.67233861856301       -0.04065410080816
C           25.73747515451097       -6.97922539961678        1.01786838544467
C           25.72661004196543       -5.59255699219032        1.01852098134933
C           27.52155914138863       -2.74784851164374       -0.02908385391718
C           28.80498180549630       -3.39746346134830        0.01358244149721
C           29.74768074023015       -2.42210073832330        0.01579886876221
C           29.05261738482260       -1.16567391071430       -0.01441282232291
N           27.70709259681317       -1.39635620892040       -0.03659542702828
N           24.80344006170600       -1.41754493556984       -0.00469837633906
C           26.20360002622165        4.98301050198838        0.05014439486775
C           26.72292681815791        5.70058140994713       -1.02813557103855
C           26.70782367316206        7.08731104709397       -1.02089605281401
C           26.17949627688044        7.77397427453044        0.06383384087481
C           25.66420054704063        7.06743195716216        1.14209314458183
C           25.67339086205933        5.68056344535724        1.13608821228022
H           30.74738446758406        0.09279789159311        0.00591584083493
H           30.77269951407409        2.71989387086152        0.05577130882151
H           28.87473429477355        4.61654767821934        0.09529971686949
H           23.55459133593597        4.57427931650435        0.02013213150383
H           21.68564355328579        2.66303834234364        0.01766880020758
H           21.73591809104606       -2.64312901148808       -0.14702050689970
H           23.63999609329782       -4.51812347409134       -0.17766851739563
H           27.29417666860564       -5.04048607565929       -1.93397975840118
H           27.31703687533961       -7.50869502485058       -1.92951143025434
H           26.31506203663322       -8.75647861995167       -0.04091708648826
H           25.29847836157652       -7.52119648990450        1.84828708988934
H           25.29078755330054       -5.05274030240343        1.85197394445881
H           28.95987359984435       -4.46397222823291        0.04942648036791
H           30.82065674862341       -2.53134880217672        0.04296184097427
H           27.12505817358992        5.16564474688662       -1.88142737860274
H           27.10871082152976        7.63416429709434       -1.86719607375079
H           26.16927821172247        8.85807621560028        0.06874285498449
H           25.25380797240016        7.59908090596917        1.99354379157836
H           25.28114716230311        5.13057086032519        1.98436502376650
C           20.16005413041744       -0.00595292425267       -0.01064769068452
C           21.37906442072038        0.00636986187457       -0.00875394790533

          :  Hamiltonian                  GFN1-xTB          :
         :: total energy            -187.057907424907 Eh    ::
         :: gradient norm              0.000495394729 Eh/a0 ::
         :: HOMO-LUMO gap              1.073178944513 eV    ::
         :: SCC energy              -190.104909814696 Eh    ::
         :: repulsion energy           3.151086233430 Eh    ::

    * Orbital Energies and Occupations

         #    Occupation            Energy/Eh            Energy/eV
      -------------------------------------------------------------
         1        2.0000           -0.7564192             -20.5832
       ...           ...                  ...                  ...
       161        2.0000           -0.4269711             -11.6185
       162        2.0000           -0.4188072             -11.3963
       163        2.0000           -0.4187912             -11.3959
       164        2.0000           -0.4181110             -11.3774
       165        2.0000           -0.4177527             -11.3676
       166        2.0000           -0.4176938             -11.3660
       167        2.0000           -0.4175117             -11.3611
       168        2.0000           -0.4174777             -11.3601
       169        2.0000           -0.4164486             -11.3321
       170        2.0000           -0.3903667             -10.6224
       171        2.0000           -0.3903519             -10.6220
       172        2.0000           -0.3877890             -10.5523
       173        2.0000           -0.3727730             -10.1437 (HOMO)
       174                         -0.3333344              -9.0705 (LUMO)
       175                         -0.3230268              -8.7900
       176                         -0.3230176              -8.7898
       177                         -0.3160472              -8.6001
       178                         -0.2916459              -7.9361
       179                         -0.2825754              -7.6893
       180                         -0.2615178              -7.1163
       181                         -0.2615151              -7.1162
       182                         -0.2614745              -7.1151
       183                         -0.2614712              -7.1150
       184                         -0.2597041              -7.0669
       ...                                ...                  ...
       380                          1.3304533              36.2035
      -------------------------------------------------------------
                  HL-Gap            0.0394386 Eh            1.0732 eV

Wiberg/Mayer (AO) data.
largest (>0.10) Wiberg bond orders for each atom

     #   Z sym  total        # sym  WBO       # sym  WBO       # sym  WBO
 ---------------------------------------------------------------------------
     1  30 Zn   1.999 --    30 N    0.459     7 N    0.459    12 N    0.458
                            31 N    0.457
     2   6 C    3.926 --     3 C    1.357    29 C    1.357    38 H    0.971
     3   6 C    3.922 --     2 C    1.357     7 N    1.234     4 C    1.171
     4   6 C    3.960 --     5 C    1.659     3 C    1.171    39 H    0.976
     5   6 C    3.963 --     4 C    1.659     6 C    1.172    40 H    0.973
     6   6 C    3.919 --     8 C    1.316     7 N    1.243     5 C    1.172
     7   7 N    3.293 --     6 C    1.243     3 C    1.234     1 Zn   0.459
     8   6 C    3.933 --     9 C    1.323     6 C    1.316    32 C    1.025
     9   6 C    3.914 --     8 C    1.323    12 N    1.225    10 C    1.180
    10   6 C    3.960 --    11 C    1.643     9 C    1.180    41 H    0.973
    11   6 C    3.962 --    10 C    1.643    13 C    1.188    42 H    0.963
    12   7 N    3.297 --    13 C    1.260     9 C    1.225     1 Zn   0.458
    13   6 C    3.906 --    12 N    1.260    14 C    1.257    11 C    1.188
    14   6 C    3.939 --    13 C    1.257    15 C    1.257   113 C    1.182
    15   6 C    3.906 --    31 N    1.260    14 C    1.257    16 C    1.188
    16   6 C    3.962 --    17 C    1.643    15 C    1.188    43 H    0.963
    17   6 C    3.960 --    16 C    1.643    18 C    1.180    44 H    0.973
    18   6 C    3.914 --    19 C    1.322    31 N    1.226    17 C    1.180
    19   6 C    3.933 --    18 C    1.322    26 C    1.316    20 C    1.027
    20   6 C    3.988 --    21 C    1.396    25 C    1.395    19 C    1.027
                            23 C    0.108
    21   6 C    3.988 --    22 C    1.447    20 C    1.396    45 H    0.973
                            24 C    0.109
    22   6 C    3.995 --    21 C    1.447    23 C    1.438    46 H    0.974
                            25 C    0.109
    23   6 C    3.990 --    22 C    1.438    24 C    1.437    47 H    0.974
                            20 C    0.108
    24   6 C    3.995 --    25 C    1.448    23 C    1.437    48 H    0.973
                            21 C    0.109
    25   6 C    3.988 --    24 C    1.448    20 C    1.395    49 H    0.973
                            22 C    0.109
    26   6 C    3.919 --    19 C    1.316    30 N    1.243    27 C    1.172
    27   6 C    3.963 --    28 C    1.658    26 C    1.172    50 H    0.973
    28   6 C    3.960 --    27 C    1.658    29 C    1.171    51 H    0.976
    29   6 C    3.922 --     2 C    1.357    30 N    1.234    28 C    1.171
    30   7 N    3.293 --    26 C    1.243    29 C    1.234     1 Zn   0.459
    31   7 N    3.297 --    15 C    1.260    18 C    1.226     1 Zn   0.457
    32   6 C    3.988 --    37 C    1.396    33 C    1.396     8 C    1.025
                            35 C    0.108
    33   6 C    3.988 --    34 C    1.447    32 C    1.396    52 H    0.973
                            36 C    0.110
    34   6 C    3.995 --    33 C    1.447    35 C    1.438    53 H    0.973
                            37 C    0.110
    35   6 C    3.990 --    36 C    1.438    34 C    1.438    54 H    0.974
                            32 C    0.108
    36   6 C    3.995 --    37 C    1.447    35 C    1.438    55 H    0.973
                            33 C    0.110
    37   6 C    3.988 --    36 C    1.447    32 C    1.396    56 H    0.973
                            34 C    0.110
    38   1 H    1.002 --     2 C    0.971
    39   1 H    0.998 --     4 C    0.976
    40   1 H    1.005 --     5 C    0.973
    41   1 H    1.005 --    10 C    0.973
    42   1 H    1.008 --    11 C    0.963
    43   1 H    1.008 --    16 C    0.963
    44   1 H    1.005 --    17 C    0.973
    45   1 H    1.005 --    21 C    0.973
    46   1 H    1.003 --    22 C    0.974
    47   1 H    1.003 --    23 C    0.974
    48   1 H    1.003 --    24 C    0.973
    49   1 H    1.005 --    25 C    0.973
    50   1 H    1.005 --    27 C    0.973
    51   1 H    0.998 --    28 C    0.976
    52   1 H    1.005 --    33 C    0.973
    53   1 H    1.003 --    34 C    0.973
    54   1 H    1.003 --    35 C    0.974
    55   1 H    1.003 --    36 C    0.973
    56   1 H    1.005 --    37 C    0.973
    57  30 Zn   1.999 --    86 N    0.459    63 N    0.459    68 N    0.458
                            87 N    0.457
    58   6 C    3.926 --    59 C    1.357    85 C    1.357    94 H    0.971
    59   6 C    3.922 --    58 C    1.357    63 N    1.234    60 C    1.171
    60   6 C    3.960 --    61 C    1.659    59 C    1.171    95 H    0.976
    61   6 C    3.963 --    60 C    1.659    62 C    1.172    96 H    0.973
    62   6 C    3.919 --    64 C    1.316    63 N    1.243    61 C    1.172
    63   7 N    3.293 --    62 C    1.243    59 C    1.234    57 Zn   0.459
    64   6 C    3.933 --    65 C    1.323    62 C    1.316    88 C    1.025
    65   6 C    3.914 --    64 C    1.323    68 N    1.225    66 C    1.180
    66   6 C    3.960 --    67 C    1.643    65 C    1.180    97 H    0.973
    67   6 C    3.962 --    66 C    1.643    69 C    1.188    98 H    0.963
    68   7 N    3.297 --    69 C    1.260    65 C    1.225    57 Zn   0.458
    69   6 C    3.906 --    68 N    1.260    70 C    1.257    67 C    1.188
    70   6 C    3.939 --    69 C    1.257    71 C    1.257   114 C    1.182
    71   6 C    3.906 --    87 N    1.260    70 C    1.257    72 C    1.188
    72   6 C    3.962 --    73 C    1.643    71 C    1.188    99 H    0.963
    73   6 C    3.960 --    72 C    1.643    74 C    1.180   100 H    0.973
    74   6 C    3.914 --    75 C    1.322    87 N    1.226    73 C    1.180
    75   6 C    3.933 --    74 C    1.322    82 C    1.316    76 C    1.027
    76   6 C    3.988 --    77 C    1.396    81 C    1.395    75 C    1.027
                            79 C    0.108
    77   6 C    3.988 --    78 C    1.447    76 C    1.396   101 H    0.973
                            80 C    0.109
    78   6 C    3.995 --    77 C    1.447    79 C    1.438   102 H    0.974
                            81 C    0.109
    79   6 C    3.990 --    78 C    1.438    80 C    1.437   103 H    0.974
                            76 C    0.108
    80   6 C    3.995 --    81 C    1.448    79 C    1.437   104 H    0.973
                            77 C    0.109
    81   6 C    3.988 --    80 C    1.448    76 C    1.395   105 H    0.973
                            78 C    0.109
    82   6 C    3.919 --    75 C    1.316    86 N    1.243    83 C    1.172
    83   6 C    3.963 --    84 C    1.658    82 C    1.172   106 H    0.973
    84   6 C    3.960 --    83 C    1.658    85 C    1.171   107 H    0.976
    85   6 C    3.922 --    58 C    1.357    86 N    1.234    84 C    1.171
    86   7 N    3.293 --    82 C    1.243    85 C    1.234    57 Zn   0.459
    87   7 N    3.297 --    71 C    1.260    74 C    1.226    57 Zn   0.457
    88   6 C    3.988 --    93 C    1.396    89 C    1.396    64 C    1.025
                            91 C    0.108
    89   6 C    3.988 --    90 C    1.447    88 C    1.396   108 H    0.973
                            92 C    0.110
    90   6 C    3.995 --    89 C    1.447    91 C    1.438   109 H    0.973
                            93 C    0.110
    91   6 C    3.990 --    92 C    1.438    90 C    1.438   110 H    0.974
                            88 C    0.108
    92   6 C    3.995 --    93 C    1.447    91 C    1.438   111 H    0.973
                            89 C    0.110
    93   6 C    3.988 --    92 C    1.447    88 C    1.396   112 H    0.973
                            90 C    0.110
    94   1 H    1.002 --    58 C    0.971
    95   1 H    0.998 --    60 C    0.976
    96   1 H    1.005 --    61 C    0.973
    97   1 H    1.005 --    66 C    0.973
    98   1 H    1.008 --    67 C    0.963
    99   1 H    1.008 --    72 C    0.963
   100   1 H    1.005 --    73 C    0.973
   101   1 H    1.005 --    77 C    0.973
   102   1 H    1.003 --    78 C    0.974
   103   1 H    1.003 --    79 C    0.974
   104   1 H    1.003 --    80 C    0.973
   105   1 H    1.005 --    81 C    0.973
   106   1 H    1.005 --    83 C    0.973
   107   1 H    0.998 --    84 C    0.976
   108   1 H    1.005 --    89 C    0.973
   109   1 H    1.003 --    90 C    0.973
   110   1 H    1.003 --    91 C    0.974
   111   1 H    1.003 --    92 C    0.973
   112   1 H    1.005 --    93 C    0.973
   113   6 C    3.934 --   114 C    2.576    14 C    1.182
   114   6 C    3.934 --   113 C    2.576    70 C    1.182
 ---------------------------------------------------------------------------

           -------------------------------------------------
          | TOTAL ENERGY             -187.057907424907 Eh   |
          | GRADIENT NORM               0.000495394729 Eh/α |
          | HOMO-LUMO GAP               1.073178944513 eV   |
           -------------------------------------------------

 * finished run on 2022/07/30 at 11:17:08.504
