   * xtb version 6.5.1 (b24c23e) compiled by 'conda@728c89f4b128' on 2022-07-12
          program call               : xtb Zn_PhNO2_C4_2.xyz --gfn 1 --opt -T 48

   ID    Z sym.   atoms
    1   30 Zn     1, 61
    2    6 C      2-6, 8-12, 16-20, 22-27, 29-33, 37-42, 62-66, 68-72, 76-80,
                  82-87, 89-93, 97-102, 121-124
    3    7 N      7, 13, 21, 28, 34, 43, 67, 73, 81, 88, 94, 103
    4    8 O      14, 15, 35, 36, 74, 75, 95, 96
    5    1 H      44-60, 104-120
########################################################################
[WARNING] Please study the warnings concerning your input carefully
-1- prog_main_parseArguments: Unknown option '-T' provided
########################################################################

          :  Hamiltonian                  GFN1-xTB          :
 * total energy  :  -238.3686595 Eh     change       -0.1036540E-09 Eh
 * total energy  :  -238.8108108 Eh     change       -0.4421513E+00 Eh
 * total energy  :  -238.9352975 Eh     change       -0.1244867E+00 Eh
 * total energy  :  -238.9352975 Eh     change       -0.1766409E-09 Eh
 * total energy  :  -238.9700236 Eh     change       -0.3472617E-01 Eh
 * total energy  :  -238.9848335 Eh     change       -0.1480988E-01 Eh
 * total energy  :  -238.9900251 Eh     change       -0.5191606E-02 Eh
 * total energy  :  -238.9929388 Eh     change       -0.2913708E-02 Eh
 * total energy  :  -238.9950190 Eh     change       -0.2080207E-02 Eh
 * total energy  :  -238.9963519 Eh     change       -0.1332903E-02 Eh
 * total energy  :  -239.0027737 Eh     change       -0.1964587E-04 Eh
 * total energy  :  -239.0027886 Eh     change       -0.1492276E-04 Eh
 * total energy  :  -239.0027984 Eh     change       -0.9844590E-05 Eh
 * total energy  :  -239.0028124 Eh     change       -0.1398751E-04 Eh
 * total energy  :  -239.0028261 Eh     change       -0.1370763E-04 Eh
 * total energy  :  -239.0028333 Eh     change       -0.7135612E-05 Eh
 * total energy  :  -239.0028384 Eh     change       -0.5084726E-05 Eh
 * total energy  :  -239.0028441 Eh     change       -0.5783905E-05 Eh
 * total energy  :  -239.0028491 Eh     change       -0.4981191E-05 Eh
   *** GEOMETRY OPTIMIZATION CONVERGED AFTER 40 ITERATIONS ***

 final structure:
================
124
 xtb: 6.5.1 (b24c23e)
Zn          15.92600565103030       -0.04669522489458       -0.01161920326296
C           12.52055969638285       -0.05672571317970       -0.14950783435876
C           13.14996807145613       -1.28294749856587       -0.32458671805928
C           12.47528058049028       -2.53535757244452       -0.52367013824429
C           13.43350496751802       -3.48557895827077       -0.65647596344832
C           14.70684506558224       -2.82217689629288       -0.55121559524741
N           14.49947513903524       -1.49136880168982       -0.33929750915660
C           15.95894748171021       -3.44575621463981       -0.62418796586045
C           15.97268441834360       -4.90387275833680       -0.88882956785303
C           16.52638053295814       -5.78700231718791        0.04349809898172
C           16.53882111536157       -7.14853052877700       -0.19769261720260
C           15.99818786586691       -7.63276506450740       -1.38576804633891
N           16.01123879331490       -9.06053685516893       -1.64565790539482
O           15.53057850547707       -9.44375153966724       -2.68171189148518
O           16.50119022471181       -9.77566795085511       -0.80922202585730
C           15.44497740432332       -6.77074755823454       -2.32867384556481
C           15.43193713485243       -5.41159407989832       -2.07440743864021
C           17.19856083438820       -2.81320081965042       -0.47196378668372
C           18.47948725533780       -3.45069893043432       -0.60758414107184
C           19.42366910191269       -2.49698825746704       -0.40514885761697
N           17.38883719175125       -1.48450800857474       -0.20520566595498
C           18.73053038535459       -1.26764046053498       -0.15336965928888
C           19.35949903173304       -0.03458833236852        0.11044063409787
C           18.70499397943247        1.19235762799407        0.33787243588842
C           19.36894605670907        2.42459219835943        0.64681737081194
C           18.40548908837076        3.37050225455365        0.78619141362265
C           17.14252943187570        2.72569658884053        0.55205088442131
N           17.36131375525617        1.39953322597294        0.29462930919286
C           15.89065428362697        3.35038916712758        0.60773708323815
C           15.87321157764083        4.80825393674914        0.87293598862036
C           15.22730407604873        5.31275605918818        2.00625141890005
C           15.20676972027827        6.67217286952751        2.25834495747706
C           15.83320393888838        7.53791084179489        1.36595141803575
N           15.81048543894235        8.96609145833937        1.62285781803618
O           15.24578913256479        9.34547163858384        2.61701792777437
O           16.35669405929296        9.68545735119457        0.82572186744823
C           16.48013099565015        7.05698633941098        0.23082802590187
C           16.49955812787658        5.69521074952495       -0.00852080146940
C           14.65198488476472        2.71975656131457        0.43310151268792
C           13.37035667020791        3.37563049800897        0.43648733299342
C           12.43147645884584        2.42055274464295        0.22417900190745
C           13.12711456209009        1.17252941542890        0.07740230703433
N           14.46989959647036        1.38840937907919        0.20169340626355
H           11.43596512320147       -0.05956871432689       -0.19396392348247
H           11.40425723415053       -2.66056484724922       -0.54773769543356
H           13.29494821721858       -4.54518604534816       -0.79994074443889
H           16.93335491703073       -5.39890902647336        0.96999009422021
H           16.95915665153152       -7.84046264436907        0.52218435933248
H           15.03507293077292       -7.17197523723357       -3.24774443661027
H           15.01527483094604       -4.72938269648094       -2.80626805407032
H           18.63566029311658       -4.49130167003444       -0.84196704251229
H           20.49605879621775       -2.60709861281414       -0.42948798750613
H           20.43585143174288        2.54149962142706        0.75109442404955
H           18.53664908082365        4.41026674662223        1.03901948537610
H           14.75384443405093        4.62780554019573        2.70002903236523
H           14.71405747307218        7.07098692541369        3.13692637369213
H           16.95651835283827        7.75169858969679       -0.45045609043963
H           16.98857453420481        5.30988544905395       -0.89567097453849
H           13.21390949580004        4.43391949348044        0.57081842744465
H           11.36130911268332        2.54003309353765        0.16230001025987
Zn          29.39813449503195        0.04805054554715        0.00756353806141
C           32.80352534124770        0.10918642950761       -0.11616085584947
C           32.17410135463834        1.31165422011005        0.18098385630389
C           32.84873876142060        2.54750568463911        0.46540824889673
C           31.89048503307820        3.47819280745417        0.69847634838758
C           30.61716350262350        2.82357958772694        0.54773202680392
N           30.82458372924048        1.51031590699596        0.24564482705898
C           29.36500050445540        3.42899977694639        0.71362732614889
C           29.35113769160813        4.87998767802041        1.01485917531951
C           28.79656121244082        5.34929758850890        2.20982365420654
C           28.78401217363548        6.70196543163566        2.49656144032561
C           29.32541754793456        7.59619955096125        1.57704133777965
N           29.31190791340127        9.01732370794954        1.87109235286809
O           29.79426629786317        9.76080386648627        1.05514272483688
O           28.82141578655754        9.36685984503887        2.91442870156651
C           29.87961041076176        7.15043334051666        0.38024236995270
C           29.89267516919248        5.79507845551632        0.10648106110459
C           28.12543285332388        2.78546280282932        0.61714100325850
C           26.84447248916930        3.42742210132699        0.72936943932671
C           25.90034487508738        2.46740776525240        0.55900199543683
N           27.93522298406092        1.45359959403669        0.36663624256674
C           26.59353365045900        1.23310055851056        0.33292594312613
C           25.96462580835020       -0.00901606516380        0.11537257724544
C           26.61918674359940       -1.23161453983709       -0.13401083650409
C           25.95510108092845       -2.48953269137794       -0.31095958617414
C           26.91859857394526       -3.41880479478787       -0.53573937731893
C           28.18165109929566       -2.73344285891105       -0.50999467910239
N           27.96288626049112       -1.40753731409810       -0.25122269255123
C           29.43360901305696       -3.33351871409260       -0.69192049129588
C           29.45109310819594       -4.78434109467727       -0.99306751250572
C           30.09770778353923       -5.67724604788448       -0.13240000339056
C           30.11828855521700       -7.03189325322652       -0.40901403531023
C           29.49117991542498       -7.49951117827893       -1.56069854055231
N           29.51422260597317       -8.91962598165243       -1.85884835981575
O           30.07844449148247       -9.64457140226403       -1.07945193782100
O           28.96791420510016       -9.28716211558816       -2.86757658573408
C           28.84336926527445       -6.62781385235825       -2.43179238531365
C           28.82396757480444       -5.27578289611730       -2.14252322350225
C           30.67225113297241       -2.68337081081944       -0.61693463017509
C           31.95391102566694       -3.29248576338873       -0.85999465553861
C           32.89272387360178       -2.32741880810090       -0.69866951933043
C           32.19701382523050       -1.11553995970306       -0.36651693480317
N           30.85425943646750       -1.36240918058916       -0.33206739553689
H           33.88811333993952        0.12854400395361       -0.15646987568651
H           33.91975012821864        2.67276309861120        0.48967456711457
H           32.02908006433398        4.51438594238378        0.96236616108290
H           28.38895065820757        4.64226332381933        2.92298007240609
H           28.36296271016227        7.07365228208548        3.42297645465181
H           30.29017241051275        7.86685980836128       -0.32108964046764
H           30.30994343053922        5.43692524408707       -0.82746078439668
H           26.68828745371880        4.48008113530607        0.90170023274710
H           24.82795592650804        2.57868897035164        0.57684079742011
H           24.88811401398942       -2.63675787109425       -0.25905396650605
H           26.78729893787972       -4.47745095206557       -0.69147523643069
H           30.57170004346770       -5.30275580926217        0.76745565415942
H           30.61163016731732       -7.73122234551222        0.25527205621173
H           28.36632432150840       -7.01610937793812       -3.32363079872453
H           28.33439639209448       -4.58572481566566       -2.81986491349971
H           32.11040252123271       -4.32384404961206       -1.13257636389926
H           33.96287724580269       -2.41481158727297       -0.80110817312285
C           21.98720745899703       -0.02968094520324        0.15404260335734
C           20.76521368483635       -0.02938044146497        0.14314378742873
C           23.33694258845707       -0.02591502427179        0.15324001531459
C           24.55883415332941       -0.02591404133648        0.14086110544242

          :  Hamiltonian                  GFN1-xTB          :
         :: total energy            -239.002849122908 Eh    ::
         :: gradient norm              0.000649148503 Eh/a0 ::
         :: HOMO-LUMO gap              1.127155142351 eV    ::
         :: SCC energy              -242.316935880144 Eh    ::
         :: repulsion energy           3.424972981298 Eh    ::

    * Orbital Energies and Occupations

         #    Occupation            Energy/Eh            Energy/eV
      -------------------------------------------------------------
         1        2.0000           -0.9210044             -25.0618
       ...           ...                  ...                  ...
       197        2.0000           -0.4448297             -12.1044
       198        2.0000           -0.4446677             -12.1000
       199        2.0000           -0.4446627             -12.0999
       200        2.0000           -0.4443539             -12.0915
       201        2.0000           -0.4439670             -12.0810
       202        2.0000           -0.4439442             -12.0803
       203        2.0000           -0.4439421             -12.0803
       204        2.0000           -0.4419875             -12.0271
       205        2.0000           -0.4412731             -12.0077
       206        2.0000           -0.4166164             -11.3367
       207        2.0000           -0.4166147             -11.3367
       208        2.0000           -0.4132516             -11.2451
       209        2.0000           -0.4006559             -10.9024 (HOMO)
       210                         -0.3592337              -9.7752 (LUMO)
       211                         -0.3561796              -9.6921
       212                         -0.3561665              -9.6918
       213                         -0.3476786              -9.4608
       214                         -0.3476662              -9.4605
       215                         -0.3447759              -9.3818
       216                         -0.3408766              -9.2757
       217                         -0.3408656              -9.2754
       218                         -0.3170632              -8.6277
       219                         -0.3096150              -8.4251
       220                         -0.3005648              -8.1788
       ...                                ...                  ...
       428                          1.4985924              40.7788
      -------------------------------------------------------------
                  HL-Gap            0.0414222 Eh            1.1272 eV

Wiberg/Mayer (AO) data.
largest (>0.10) Wiberg bond orders for each atom

     #   Z sym  total        # sym  WBO       # sym  WBO       # sym  WBO
 ---------------------------------------------------------------------------
     1  30 Zn   1.990 --    43 N    0.459     7 N    0.458    28 N    0.454
                            21 N    0.454
     2   6 C    3.929 --    42 C    1.358     3 C    1.358    44 H    0.971
     3   6 C    3.919 --     2 C    1.358     7 N    1.232     4 C    1.169
     4   6 C    3.960 --     5 C    1.661     3 C    1.169    45 H    0.975
     5   6 C    3.963 --     4 C    1.661     6 C    1.170    46 H    0.973
     6   6 C    3.919 --     8 C    1.311     7 N    1.247     5 C    1.170
     7   7 N    3.293 --     6 C    1.247     3 C    1.232     1 Zn   0.458
     8   6 C    3.930 --    18 C    1.319     6 C    1.311     9 C    1.035
     9   6 C    3.984 --    17 C    1.382    10 C    1.382     8 C    1.035
    10   6 C    3.986 --    11 C    1.465     9 C    1.382    47 H    0.971
                            16 C    0.101
    11   6 C    3.987 --    10 C    1.465    12 C    1.386    48 H    0.965
                            17 C    0.101
    12   6 C    3.940 --    16 C    1.386    11 C    1.386    13 N    0.922
    13   7 N    3.865 --    15 O    1.453    14 O    1.453    12 C    0.922
    14   8 O    1.827 --    13 N    1.453    15 O    0.251
    15   8 O    1.827 --    13 N    1.453    14 O    0.251
    16   6 C    3.987 --    17 C    1.465    12 C    1.386    49 H    0.965
                            10 C    0.101
    17   6 C    3.986 --    16 C    1.465     9 C    1.382    50 H    0.971
                            11 C    0.101
    18   6 C    3.912 --     8 C    1.319    21 N    1.229    19 C    1.177
    19   6 C    3.959 --    20 C    1.647    18 C    1.177    51 H    0.973
    20   6 C    3.961 --    19 C    1.647    22 C    1.185    52 H    0.974
    21   7 N    3.296 --    22 C    1.261    18 C    1.229     1 Zn   0.454
    22   6 C    3.900 --    21 N    1.261    23 C    1.256    20 C    1.185
    23   6 C    3.939 --    24 C    1.256    22 C    1.256   122 C    1.189
    24   6 C    3.900 --    28 N    1.261    23 C    1.256    25 C    1.185
    25   6 C    3.961 --    26 C    1.647    24 C    1.185    53 H    0.974
    26   6 C    3.959 --    25 C    1.647    27 C    1.178    54 H    0.973
    27   6 C    3.912 --    29 C    1.318    28 N    1.229    26 C    1.178
    28   7 N    3.295 --    24 C    1.261    27 C    1.229     1 Zn   0.454
    29   6 C    3.930 --    27 C    1.318    39 C    1.311    30 C    1.035
    30   6 C    3.983 --    38 C    1.382    31 C    1.382    29 C    1.035
    31   6 C    3.986 --    32 C    1.465    30 C    1.382    55 H    0.971
                            37 C    0.101
    32   6 C    3.987 --    31 C    1.465    33 C    1.386    56 H    0.965
                            38 C    0.101
    33   6 C    3.940 --    37 C    1.386    32 C    1.386    34 N    0.922
    34   7 N    3.865 --    36 O    1.453    35 O    1.453    33 C    0.922
    35   8 O    1.827 --    34 N    1.453    36 O    0.251
    36   8 O    1.827 --    34 N    1.453    35 O    0.251
    37   6 C    3.987 --    38 C    1.465    33 C    1.386    57 H    0.965
                            31 C    0.101
    38   6 C    3.986 --    37 C    1.465    30 C    1.382    58 H    0.971
                            32 C    0.101
    39   6 C    3.919 --    29 C    1.311    43 N    1.247    40 C    1.170
    40   6 C    3.963 --    41 C    1.661    39 C    1.170    59 H    0.973
    41   6 C    3.960 --    40 C    1.661    42 C    1.169    60 H    0.975
    42   6 C    3.919 --     2 C    1.358    43 N    1.232    41 C    1.169
    43   7 N    3.293 --    39 C    1.247    42 C    1.232     1 Zn   0.459
    44   1 H    1.001 --     2 C    0.971
    45   1 H    0.997 --     4 C    0.975
    46   1 H    1.003 --     5 C    0.973
    47   1 H    1.004 --    10 C    0.971
    48   1 H    1.006 --    11 C    0.965
    49   1 H    1.006 --    16 C    0.965
    50   1 H    1.004 --    17 C    0.971
    51   1 H    1.003 --    19 C    0.973
    52   1 H    1.002 --    20 C    0.974
    53   1 H    1.002 --    25 C    0.974
    54   1 H    1.003 --    26 C    0.973
    55   1 H    1.004 --    31 C    0.971
    56   1 H    1.006 --    32 C    0.965
    57   1 H    1.006 --    37 C    0.965
    58   1 H    1.004 --    38 C    0.971
    59   1 H    1.003 --    40 C    0.973
    60   1 H    0.997 --    41 C    0.975
    61  30 Zn   1.990 --   103 N    0.459    67 N    0.458    81 N    0.454
                            88 N    0.454
    62   6 C    3.929 --   102 C    1.358    63 C    1.358   104 H    0.971
    63   6 C    3.919 --    62 C    1.358    67 N    1.232    64 C    1.169
    64   6 C    3.960 --    65 C    1.661    63 C    1.169   105 H    0.975
    65   6 C    3.963 --    64 C    1.661    66 C    1.170   106 H    0.973
    66   6 C    3.919 --    68 C    1.311    67 N    1.247    65 C    1.170
    67   7 N    3.293 --    66 C    1.247    63 C    1.232    61 Zn   0.458
    68   6 C    3.930 --    78 C    1.318    66 C    1.311    69 C    1.035
    69   6 C    3.984 --    77 C    1.382    70 C    1.382    68 C    1.035
    70   6 C    3.986 --    71 C    1.465    69 C    1.382   107 H    0.971
                            76 C    0.101
    71   6 C    3.987 --    70 C    1.465    72 C    1.386   108 H    0.965
                            77 C    0.101
    72   6 C    3.940 --    76 C    1.386    71 C    1.386    73 N    0.922
    73   7 N    3.865 --    75 O    1.453    74 O    1.453    72 C    0.922
    74   8 O    1.827 --    73 N    1.453    75 O    0.251
    75   8 O    1.827 --    73 N    1.453    74 O    0.251
    76   6 C    3.987 --    77 C    1.465    72 C    1.386   109 H    0.965
                            70 C    0.101
    77   6 C    3.986 --    76 C    1.465    69 C    1.382   110 H    0.971
                            71 C    0.101
    78   6 C    3.912 --    68 C    1.318    81 N    1.229    79 C    1.177
    79   6 C    3.959 --    80 C    1.647    78 C    1.177   111 H    0.973
    80   6 C    3.961 --    79 C    1.647    82 C    1.185   112 H    0.974
    81   7 N    3.296 --    82 C    1.261    78 C    1.229    61 Zn   0.454
    82   6 C    3.900 --    81 N    1.261    83 C    1.256    80 C    1.185
    83   6 C    3.939 --    84 C    1.256    82 C    1.256   124 C    1.189
    84   6 C    3.900 --    88 N    1.261    83 C    1.256    85 C    1.185
    85   6 C    3.961 --    86 C    1.647    84 C    1.185   113 H    0.974
    86   6 C    3.959 --    85 C    1.647    87 C    1.178   114 H    0.973
    87   6 C    3.912 --    89 C    1.318    88 N    1.229    86 C    1.178
    88   7 N    3.295 --    84 C    1.261    87 C    1.229    61 Zn   0.454
    89   6 C    3.930 --    87 C    1.318    99 C    1.311    90 C    1.036
    90   6 C    3.983 --    98 C    1.382    91 C    1.382    89 C    1.036
    91   6 C    3.986 --    92 C    1.465    90 C    1.382   115 H    0.971
                            97 C    0.101
    92   6 C    3.987 --    91 C    1.465    93 C    1.386   116 H    0.965
                            98 C    0.101
    93   6 C    3.940 --    92 C    1.386    97 C    1.386    94 N    0.922
    94   7 N    3.865 --    96 O    1.453    95 O    1.453    93 C    0.922
    95   8 O    1.827 --    94 N    1.453    96 O    0.251
    96   8 O    1.827 --    94 N    1.453    95 O    0.251
    97   6 C    3.987 --    98 C    1.465    93 C    1.386   117 H    0.965
                            91 C    0.101
    98   6 C    3.986 --    97 C    1.465    90 C    1.382   118 H    0.971
                            92 C    0.101
    99   6 C    3.919 --    89 C    1.311   103 N    1.247   100 C    1.170
   100   6 C    3.963 --   101 C    1.661    99 C    1.170   119 H    0.973
   101   6 C    3.960 --   100 C    1.661   102 C    1.169   120 H    0.975
   102   6 C    3.919 --    62 C    1.358   103 N    1.232   101 C    1.169
   103   7 N    3.293 --    99 C    1.247   102 C    1.232    61 Zn   0.459
   104   1 H    1.001 --    62 C    0.971
   105   1 H    0.997 --    64 C    0.975
   106   1 H    1.003 --    65 C    0.973
   107   1 H    1.004 --    70 C    0.971
   108   1 H    1.006 --    71 C    0.965
   109   1 H    1.006 --    76 C    0.965
   110   1 H    1.004 --    77 C    0.971
   111   1 H    1.003 --    79 C    0.973
   112   1 H    1.002 --    80 C    0.974
   113   1 H    1.002 --    85 C    0.974
   114   1 H    1.003 --    86 C    0.973
   115   1 H    1.004 --    91 C    0.971
   116   1 H    1.006 --    92 C    0.965
   117   1 H    1.006 --    97 C    0.965
   118   1 H    1.004 --    98 C    0.971
   119   1 H    1.003 --   100 C    0.973
   120   1 H    0.997 --   101 C    0.975
   121   6 C    3.935 --   122 C    2.477   123 C    1.308
   122   6 C    3.926 --   121 C    2.477    23 C    1.189   124 C    0.199
   123   6 C    3.935 --   124 C    2.477   121 C    1.308
   124   6 C    3.926 --   123 C    2.477    83 C    1.189   122 C    0.199
 ---------------------------------------------------------------------------

           -------------------------------------------------
          | TOTAL ENERGY             -239.002849122908 Eh   |
          | GRADIENT NORM               0.000649148503 Eh/α |
          | HOMO-LUMO GAP               1.127155142351 eV   |
           -------------------------------------------------

 * finished run on 2022/07/30 at 10:05:41.795
