   * xtb version 6.5.1 (b24c23e) compiled by 'conda@728c89f4b128' on 2022-07-12
          program call               : xtb Co_PhNO2_C4_3.xyz --gfn 1 --opt -T 48

   ID    Z sym.   atoms
    1   27 Co     1, 61, 129
    2    6 C      2-6, 8-12, 16-20, 22-27, 29-33, 37-42, 62-66, 68-72, 76-80,
                  82-87, 89-93, 97-102, 121-128, 130-134, 136-140, 144-148,
                  150-155, 157-161, 165-170
    3    7 N      7, 13, 21, 28, 34, 43, 67, 73, 81, 88, 94, 103, 135, 141,
                  149, 156, 162, 171
    4    8 O      14, 15, 35, 36, 74, 75, 95, 96, 142, 143, 163, 164
    5    1 H      44-60, 104-120, 172-187
########################################################################
[WARNING] Please study the warnings concerning your input carefully
-1- prog_main_parseArguments: Unknown option '-T' provided
########################################################################

          :  Hamiltonian                  GFN1-xTB          :
 * total energy  :  -368.8764485 Eh     change       -0.1111744E-08 Eh
 * total energy  :  -369.7232423 Eh     change       -0.8467937E+00 Eh
 * total energy  :  -369.9877314 Eh     change       -0.2644891E+00 Eh
 * total energy  :  -370.1184288 Eh     change       -0.1306975E+00 Eh
 * total energy  :  -370.1881813 Eh     change       -0.6975246E-01 Eh
 * total energy  :  -370.2282392 Eh     change       -0.4005791E-01 Eh
 * total energy  :  -370.2504960 Eh     change       -0.2225684E-01 Eh
 * total energy  :  -370.2639565 Eh     change       -0.1346047E-01 Eh
 * total energy  :  -370.2726854 Eh     change       -0.8728924E-02 Eh
 * total energy  :  -370.2805232 Eh     change       -0.7837806E-02 Eh
 * total energy  :  -370.3086458 Eh     change       -0.6395937E-05 Eh
 * total energy  :  -370.3086565 Eh     change       -0.1067066E-04 Eh
 * total energy  :  -370.3086673 Eh     change       -0.1076888E-04 Eh
 * total energy  :  -370.3086785 Eh     change       -0.1122155E-04 Eh
 * total energy  :  -370.3086875 Eh     change       -0.8983337E-05 Eh
 * total energy  :  -370.3086842 Eh     change        0.3289641E-05 Eh
 * total energy  :  -370.3086905 Eh     change       -0.6251274E-05 Eh
 * total energy  :  -370.3086894 Eh     change        0.1101424E-05 Eh
 * total energy  :  -370.3086924 Eh     change       -0.3010846E-05 Eh
   *** GEOMETRY OPTIMIZATION CONVERGED AFTER 71 ITERATIONS ***

 final structure:
================
187
 xtb: 6.5.1 (b24c23e)
Co          32.36777743016071       -0.00655077319417       -0.08015418668832
C           28.99742982892775       -0.00690568933334       -0.25414161257667
C           29.64730691628587       -1.21609046736885       -0.13136861140387
C           28.97848799135770       -2.47785536009750       -0.03557025381408
C           29.93614066640702       -3.43138819275001       -0.11019452083418
C           31.18749605169634       -2.74940139131952       -0.27115308477907
N           31.00616502280803       -1.39164742305994       -0.21190966918992
C           32.38835742704776       -3.37931716536118       -0.57057938004305
C           32.39740762878647       -4.84227991729774       -0.78955043429719
C           33.19377818706889       -5.67131485964192        0.00627533342123
C           33.20484712572431       -7.03946251316169       -0.19559920026342
C           32.41740687913590       -7.58285564468374       -1.20661624336459
N           32.42819801940228       -9.01890829083048       -1.42568102199769
O           31.73253431554100       -9.45324287196443       -2.30741181691457
O           33.13224500504242       -9.68614787961743       -0.71226165976348
C           31.62028618981758       -6.77475239699517       -2.01221019953483
C           31.61171829064821       -5.40857588009742       -1.79816237776971
C           33.57736229577832       -2.67446985658111       -0.69085354201787
C           34.82498442315770       -3.26092992626316       -1.07904914546930
C           35.77007450088418       -2.30208914714429       -0.92990994605946
N           33.74922331955768       -1.34812639741127       -0.37014878204855
C           35.09691341700698       -1.13370189276805       -0.45752696012767
C           35.76126021142095        0.01277709480682       -0.01755332353513
C           35.06955489951010        1.14173334632606        0.42620254475737
C           35.71071541488023        2.29901177398573        0.96533283692228
C           34.74477750641012        3.23265253758600        1.13906621171040
C           33.51918959426715        2.64737507882761        0.68397425629181
N           33.72180779078833        1.33830732927759        0.31140216062227
C           32.33184931529158        3.34679361047777        0.52670979495787
C           32.30598596708271        4.79817237010904        0.81169718234388
C           31.44146339605972        5.30739190522019        1.78563188756287
C           31.41177071844569        6.66248792534725        2.05985917966371
C           32.24939392199638        7.51717115807398        1.34892069641771
N           32.21988313136029        8.94199095961474        1.63053944130578
O           31.45478406025389        9.32694831942938        2.47698063881097
O           32.96235164424019        9.65008177574022        1.00025777223755
C           33.11405638008195        7.03113511630903        0.37240276917092
C           33.14052542858791        5.67348197514369        0.11013869430168
C           31.16463946140360        2.72692251960534        0.09878445425679
C           29.93525215834078        3.41623094016257       -0.16582463130284
C           28.99818365077485        2.46823526924225       -0.40027254574312
C           29.65659302777328        1.20267254558442       -0.28205648338938
N           30.99724739408329        1.37392452549647       -0.03962449836106
H           27.91589176624113       -0.00670668691311       -0.31819353930967
H           27.91221660749132       -2.59741133535590        0.07064940363126
H           29.81950251808686       -4.50200444755585       -0.06535452080341
H           33.79375944918836       -5.23676900426109        0.79730201909475
H           33.81348916003804       -7.69097886600920        0.41985216615861
H           31.02023593506215       -7.22211949913927       -2.79548015591068
H           31.00539855956920       -4.76708726582849       -2.42695911716391
H           34.94991032521872       -4.27496097760841       -1.42211157788463
H           36.83100131262462       -2.36653654171605       -1.10977407422631
H           36.76534047048645        2.37154650188131        1.17659092762611
H           34.84287911922164        4.23025196885566        1.53493077678554
H           30.80212051004121        4.62974510679229        2.33933863665511
H           30.75036562114779        7.06580910715412        2.81722007238692
H           33.75197098559710        7.71833482036430       -0.17031828081814
H           33.79980964179610        5.28410700392680       -0.65683927552428
H           29.81921150112827        4.48785682780874       -0.16997862900816
H           27.95053204254447        2.59326540710681       -0.62230546509067
Co          59.13791306157999        0.06519950016007       -0.03197275430265
C           62.50470833533040        0.12086193129988       -0.18093339629831
C           61.85540578837893        1.19158903263383        0.39572463900416
C           62.52091661312380        2.31915405510956        0.97392364442335
C           61.56416006516295        3.23768824108926        1.24532415777018
C           60.31680853106963        2.67576785540765        0.81498800844911
N           60.49807576415677        1.39335052543308        0.36613687987599
C           59.12200214602614        3.38102979458820        0.73853349691021
C           59.11568294562547        4.82274350927404        1.06711016397147
C           58.28515253365958        5.31312984227756        2.07956140553189
C           58.27669829001730        6.66057821194176        2.39069643711815
C           59.10185879449773        7.52680220623502        1.67919391959822
N           59.09483406511349        8.94364312892948        2.00005798158875
O           59.82494021597227        9.66193750846896        1.36691671191259
O           58.35940830735528        9.31204352879327        2.87946763065637
C           59.93351830637702        7.05969745985796        0.66550066709061
C           59.93858806113061        5.70969938879404        0.36588383481070
C           57.93684097607164        2.77426684271364        0.34733444668399
C           56.69368558118715        3.46361323326193        0.17227478718394
C           55.74688222875860        2.51581855476747       -0.03067878100922
N           57.76127854159138        1.42044565359102        0.17944849411830
C           56.41497627743180        1.25374624387008        0.01319415328327
C           55.74913774252474        0.02548438237318        0.04008277587874
C           56.44317001525294       -1.18747645541192        0.06112583037312
C           55.80804187223539       -2.46283684514615        0.16530830561423
C           56.77146746736409       -3.39417473278472       -0.03578914154348
C           57.98937188279614       -2.68128900523896       -0.28125237674525
N           57.78634419849854       -1.32699709184977       -0.14655849772265
C           59.16663232282568       -3.26794425220544       -0.72253547488034
C           59.18701370163623       -4.71872629607136       -1.00767957524745
C           60.08576284349837       -5.55511019752521       -0.33810372691098
C           60.11017697423837       -6.91297155334094       -0.59865021661442
C           59.23186630292415       -7.43893027373802       -1.54174835167469
N           59.25591488648594       -8.86405885664651       -1.82234218071366
O           60.05453460277774       -9.53657738894317       -1.22255108685678
O           58.47567626403773       -9.28468622769807       -2.63731599265937
C           58.33176721188779       -6.62348884288841       -2.22165174042421
C           58.31159674938701       -5.26768899347699       -1.94977178732689
C           60.32886045395649       -2.52920019483216       -0.91062484294567
C           61.55155957526325       -3.06146812610486       -1.43813276184416
C           62.49243183921004       -2.09919737879514       -1.29150884963829
C           61.84223124761203       -0.97892583396209       -0.68221752643871
N           60.50224579534286       -1.22840967919521       -0.51679419556487
H           63.58663558389853        0.14083222782736       -0.23439851009400
H           63.58470848980922        2.38297201593850        1.13754049314446
H           61.67943817787521        4.21157156019010        1.69266558296528
H           57.65644384026601        4.62651551726637        2.63438485522761
H           57.64142527830703        7.04916015613686        3.17754587627783
H           60.56291576753922        7.75537133735633        0.12364044155157
H           60.57155335945121        5.33566823639622       -0.43034086330037
H           56.57207992036353        4.53411549424329        0.20117474813083
H           54.68791753503925        2.64285011357256       -0.18742864442597
H           54.75851005199888       -2.60955077593388        0.36305744800687
H           56.67601761975818       -4.46763987589399       -0.02382084286647
H           60.75629330278910       -5.13497688724521        0.40244614954867
H           60.79885424258286       -7.56978039118409       -0.08091182220295
H           57.66160858152732       -7.05722707762165       -2.95409979147298
H           57.62485449926997       -4.62020256358329       -2.48239395122867
H           61.66185478703414       -4.04588576038583       -1.86313650603777
H           63.53745532419627       -2.13004681139676       -1.55508365293288
C           38.38792039469517        0.03087003619501       -0.00209673898590
C           37.16590381918187        0.02544435229877       -0.00879033796903
C           39.73754415549931        0.03248281569680        0.00318041519717
C           40.95985739317246        0.03119043574469       -0.00000345215461
C           51.77578374269633       -0.00665577944965        0.05528898118726
C           50.55291012287758       -0.00890031207948        0.04897829065671
C           53.12394598789094        0.00021395120443        0.05640774467145
C           54.34659246872729        0.01029321860213        0.05223416455814
Co          45.75718465996515        0.00964130487948        0.02060692649086
C           42.36329310534666        0.02493223064576       -0.00375791452837
C           43.03938471583087       -1.15614694800236        0.31474487701962
C           42.38447081792668       -2.36703294583566        0.69524140005244
C           43.33508259470947       -3.33320899508132        0.71311393515376
C           44.56509329949992       -2.70714348362307        0.33295907223927
N           44.38165638062826       -1.35678312581039        0.15514619422462
C           45.74270962394812       -3.39034577929835        0.05729967541916
C           45.73517695633799       -4.86876020196579        0.08652014344948
C           46.59105770389237       -5.56190669259663        0.94808041785087
C           46.58444285148538       -6.94438551863012        0.98271597428274
C           45.71858935775408       -7.64007403411434        0.14404814594620
N           45.70984596046114       -9.09309512849358        0.17454199914639
O           44.94810086989227       -9.66082135347264       -0.56474278920487
O           46.46464048462619       -9.63820242796453        0.93778581348491
C           44.86064896990482       -6.96945829457088       -0.72272518874963
C           44.87042846980800       -5.58668394807242       -0.74530649580264
C           46.92704211767864       -2.72829775303932       -0.23623127826919
C           48.15720338641454       -3.37986328636792       -0.57160643651031
C           49.11791834545434       -2.42390347922270       -0.56683442487113
N           47.12054293482205       -1.37214369977418       -0.11308470684013
C           48.46831130211168       -1.19306525620149       -0.24546714886853
C           49.15125124868885       -0.00539161521631        0.03386289578463
C           48.47093641337092        1.19006087329731        0.28573052194456
C           49.12178137243986        2.42055529782945        0.60526425514365
C           48.17257428234455        3.38680096198265        0.55087508268721
C           46.94741408986807        2.73999510697177        0.19026722787316
N           47.13164711579360        1.38118467141438        0.09583775427966
C           45.77513546066981        3.40601322340352       -0.14256587214392
C           45.79038109330929        4.88290569552150       -0.21472214544481
C           46.66817676704734        5.53383202548291       -1.08719297346303
C           46.68802618437276        6.91443922772401       -1.16356392311701
C           45.82682106556040        7.65099115986904       -0.35554329523007
N           45.84577928614154        9.10230462910943       -0.42979573168501
O           46.62308100362116        9.61009448311838       -1.19621406998681
O           45.08236385139520        9.70607067597057        0.27857021264585
C           44.94833598523508        7.02282464779341        0.52239267573058
C           44.93196835297571        5.64136927795299        0.58698166776694
C           44.59197034734159        2.72856115536127       -0.40513177177136
C           43.36507418554653        3.36053131652438       -0.78671079672874
C           42.40296925299727        2.40762047055709       -0.73192412486775
C           43.04877615708116        1.19662373409872       -0.33592384479882
N           44.39613139123863        1.38239185918333       -0.20375096811824
H           41.33145174765546       -2.45263938298687        0.90937402216319
H           43.22338106989829       -4.37619141157807        0.96060590939263
H           47.25123855838513       -5.00812542540914        1.60535032677187
H           47.23936451053749       -7.49044872194936        1.65099670911033
H           44.19866875535664       -7.53490345495786       -1.36753330427302
H           44.21577387658223       -5.05259440568624       -1.42403380764171
H           48.26253696601712       -4.43231315695596       -0.77835699130419
H           50.17431347863330       -2.52792431277900       -0.75461855901498
H           50.17161723852144        2.51796693189440        0.82976797878608
H           48.28188082165664        4.44260523647757        0.73769232459135
H           47.32525445053019        4.94802160313114       -1.71932562457086
H           47.35987461875620        7.42777397104900       -1.84090997820977
H           44.29172651542628        7.61973981425799        1.14389806233175
H           44.26219970972939        5.14061883477264        1.27628647049441
H           43.26245389263090        4.39914024087714       -1.05547670455142
H           41.34807161773201        2.50162868065256       -0.93287308357301

          :  Hamiltonian                  GFN1-xTB          :
         :: total energy            -370.308692363312 Eh    ::
         :: gradient norm              0.000487593345 Eh/a0 ::
         :: HOMO-LUMO gap              0.003676444844 eV    ::
         :: SCC energy              -375.473126172415 Eh    ::
         :: repulsion energy           5.334808576575 Eh    ::

    * Orbital Energies and Occupations

         #    Occupation            Energy/Eh            Energy/eV
      -------------------------------------------------------------
         1        2.0000           -0.9266257             -25.2148
       ...           ...                  ...                  ...
       316        2.0000           -0.4222061             -11.4888
       317        2.0000           -0.4220563             -11.4847
       318        2.0000           -0.4219741             -11.4825
       319        1.9998           -0.4189722             -11.4008
       320        1.9998           -0.4189046             -11.3990
       321        1.9997           -0.4185201             -11.3885
       322        1.9997           -0.4184895             -11.3877
       323        1.9997           -0.4183305             -11.3834
       324        1.9997           -0.4182992             -11.3825
       325        1.9996           -0.4181683             -11.3789
       326        1.7456           -0.4118263             -11.2064
       327        1.1158           -0.4101110             -11.1597
       328        1.1026           -0.4100833             -11.1589 (HOMO)
       329        1.0380           -0.4099482             -11.1553 (LUMO)
       330                         -0.3694370             -10.0529
       331                         -0.3632080              -9.8834
       332                         -0.3610928              -9.8258
       333                         -0.3602705              -9.8035
       334                         -0.3592897              -9.7768
       335                         -0.3536130              -9.6223
       336                         -0.3523331              -9.5875
       337                         -0.3518000              -9.5730
       338                         -0.3515368              -9.5658
       339                         -0.3469262              -9.4403
       ...                                ...                  ...
       663                          1.4883345              40.4996
      -------------------------------------------------------------
                  HL-Gap            0.0001351 Eh            0.0037 eV

Wiberg/Mayer (AO) data.
largest (>0.10) Wiberg bond orders for each atom

     #   Z sym  total        # sym  WBO       # sym  WBO       # sym  WBO
 ---------------------------------------------------------------------------
     1  27 Co   3.028 --    43 N    0.639     7 N    0.638    21 N    0.633
                            28 N    0.632
     2   6 C    3.931 --    42 C    1.368     3 C    1.365    44 H    0.969
     3   6 C    3.921 --     2 C    1.365     7 N    1.200     4 C    1.173
     4   6 C    3.960 --     5 C    1.651     3 C    1.173    45 H    0.974
     5   6 C    3.962 --     4 C    1.651     6 C    1.174    46 H    0.973
     6   6 C    3.920 --     8 C    1.318     7 N    1.213     5 C    1.174
     7   7 N    3.347 --     6 C    1.213     3 C    1.200     1 Co   0.638
     8   6 C    3.932 --    18 C    1.327     6 C    1.318     9 C    1.035
     9   6 C    3.985 --    10 C    1.383    17 C    1.383     8 C    1.035
    10   6 C    3.987 --    11 C    1.463     9 C    1.383    47 H    0.971
                            16 C    0.102
    11   6 C    3.987 --    10 C    1.463    12 C    1.388    48 H    0.964
                            17 C    0.102
    12   6 C    3.941 --    11 C    1.388    16 C    1.387    13 N    0.920
    13   7 N    3.866 --    15 O    1.455    14 O    1.455    12 C    0.920
    14   8 O    1.830 --    13 N    1.455    15 O    0.252
    15   8 O    1.830 --    13 N    1.455    14 O    0.252
    16   6 C    3.987 --    17 C    1.464    12 C    1.387    49 H    0.964
                            10 C    0.102
    17   6 C    3.986 --    16 C    1.464     9 C    1.383    50 H    0.971
                            11 C    0.102
    18   6 C    3.916 --     8 C    1.327    21 N    1.197    19 C    1.180
    19   6 C    3.958 --    20 C    1.639    18 C    1.180    51 H    0.973
    20   6 C    3.961 --    19 C    1.639    22 C    1.188    52 H    0.973
    21   7 N    3.348 --    22 C    1.226    18 C    1.197     1 Co   0.633
    22   6 C    3.903 --    23 C    1.264    21 N    1.226    20 C    1.188
    23   6 C    3.935 --    22 C    1.264    24 C    1.262   122 C    1.184
    24   6 C    3.903 --    23 C    1.262    28 N    1.229    25 C    1.189
    25   6 C    3.961 --    26 C    1.639    24 C    1.189    53 H    0.973
    26   6 C    3.958 --    25 C    1.639    27 C    1.179    54 H    0.973
    27   6 C    3.916 --    29 C    1.330    28 N    1.195    26 C    1.179
    28   7 N    3.348 --    24 C    1.229    27 C    1.195     1 Co   0.632
    29   6 C    3.931 --    27 C    1.330    39 C    1.315    30 C    1.035
    30   6 C    3.985 --    38 C    1.384    31 C    1.383    29 C    1.035
    31   6 C    3.986 --    32 C    1.464    30 C    1.383    55 H    0.971
                            37 C    0.102
    32   6 C    3.987 --    31 C    1.464    33 C    1.387    56 H    0.964
                            38 C    0.102
    33   6 C    3.941 --    37 C    1.388    32 C    1.387    34 N    0.920
    34   7 N    3.866 --    36 O    1.455    35 O    1.455    33 C    0.920
    35   8 O    1.830 --    34 N    1.455    36 O    0.252
    36   8 O    1.830 --    34 N    1.455    35 O    0.252
    37   6 C    3.987 --    38 C    1.463    33 C    1.388    57 H    0.964
                            31 C    0.102
    38   6 C    3.987 --    37 C    1.463    30 C    1.384    58 H    0.971
                            32 C    0.102
    39   6 C    3.920 --    29 C    1.315    43 N    1.215    40 C    1.175
    40   6 C    3.963 --    41 C    1.651    39 C    1.175    59 H    0.973
    41   6 C    3.959 --    40 C    1.651    42 C    1.172    60 H    0.974
    42   6 C    3.921 --     2 C    1.368    43 N    1.197    41 C    1.172
    43   7 N    3.348 --    39 C    1.215    42 C    1.197     1 Co   0.639
    44   1 H    0.999 --     2 C    0.969
    45   1 H    0.996 --     4 C    0.974
    46   1 H    1.002 --     5 C    0.973
    47   1 H    1.003 --    10 C    0.971
    48   1 H    1.006 --    11 C    0.964
    49   1 H    1.006 --    16 C    0.964
    50   1 H    1.003 --    17 C    0.971
    51   1 H    1.003 --    19 C    0.973
    52   1 H    1.001 --    20 C    0.973
    53   1 H    1.001 --    25 C    0.973
    54   1 H    1.003 --    26 C    0.973
    55   1 H    1.003 --    31 C    0.971
    56   1 H    1.006 --    32 C    0.964
    57   1 H    1.006 --    37 C    0.964
    58   1 H    1.004 --    38 C    0.971
    59   1 H    1.002 --    40 C    0.973
    60   1 H    0.996 --    41 C    0.974
    61  27 Co   3.033 --    67 N    0.638   103 N    0.638    88 N    0.632
                            81 N    0.632
    62   6 C    3.928 --   102 C    1.367    63 C    1.365   104 H    0.969
    63   6 C    3.921 --    62 C    1.365    67 N    1.199    64 C    1.174
    64   6 C    3.958 --    65 C    1.650    63 C    1.174   105 H    0.974
    65   6 C    3.962 --    64 C    1.650    66 C    1.175   106 H    0.973
    66   6 C    3.920 --    68 C    1.315    67 N    1.214    65 C    1.175
    67   7 N    3.345 --    66 C    1.214    63 C    1.199    61 Co   0.638
    68   6 C    3.929 --    78 C    1.327    66 C    1.315    69 C    1.037
    69   6 C    3.985 --    70 C    1.383    77 C    1.382    68 C    1.037
    70   6 C    3.985 --    71 C    1.464    69 C    1.383   107 H    0.971
                            76 C    0.102
    71   6 C    3.987 --    70 C    1.464    72 C    1.387   108 H    0.964
                            77 C    0.102
    72   6 C    3.941 --    71 C    1.387    76 C    1.387    73 N    0.920
    73   7 N    3.866 --    74 O    1.455    75 O    1.455    72 C    0.920
    74   8 O    1.830 --    73 N    1.455    75 O    0.252
    75   8 O    1.830 --    73 N    1.455    74 O    0.252
    76   6 C    3.987 --    77 C    1.464    72 C    1.387   109 H    0.964
                            70 C    0.102
    77   6 C    3.986 --    76 C    1.464    69 C    1.382   110 H    0.971
                            71 C    0.102
    78   6 C    3.916 --    68 C    1.327    81 N    1.196    79 C    1.180
    79   6 C    3.957 --    80 C    1.638    78 C    1.180   111 H    0.973
    80   6 C    3.961 --    79 C    1.638    82 C    1.189   112 H    0.973
    81   7 N    3.346 --    82 C    1.229    78 C    1.196    61 Co   0.632
    82   6 C    3.902 --    83 C    1.260    81 N    1.229    80 C    1.189
    83   6 C    3.932 --    82 C    1.260    84 C    1.258   128 C    1.192
    84   6 C    3.902 --    83 C    1.258    88 N    1.231    85 C    1.190
    85   6 C    3.960 --    86 C    1.637    84 C    1.190   113 H    0.973
    86   6 C    3.957 --    85 C    1.637    87 C    1.180   114 H    0.973
    87   6 C    3.916 --    89 C    1.330    88 N    1.194    86 C    1.180
    88   7 N    3.346 --    84 C    1.231    87 C    1.194    61 Co   0.632
    89   6 C    3.929 --    87 C    1.330    99 C    1.313    90 C    1.037
    90   6 C    3.985 --    98 C    1.383    91 C    1.382    89 C    1.037
    91   6 C    3.985 --    92 C    1.464    90 C    1.382   115 H    0.971
                            97 C    0.102
    92   6 C    3.987 --    91 C    1.464    93 C    1.387   116 H    0.964
                            98 C    0.102
    93   6 C    3.941 --    97 C    1.388    92 C    1.387    94 N    0.920
    94   7 N    3.866 --    95 O    1.455    96 O    1.455    93 C    0.920
    95   8 O    1.830 --    94 N    1.455    96 O    0.252
    96   8 O    1.830 --    94 N    1.455    95 O    0.252
    97   6 C    3.987 --    98 C    1.463    93 C    1.388   117 H    0.964
                            91 C    0.102
    98   6 C    3.986 --    97 C    1.463    90 C    1.383   118 H    0.971
                            92 C    0.102
    99   6 C    3.920 --    89 C    1.313   103 N    1.216   100 C    1.175
   100   6 C    3.963 --   101 C    1.650    99 C    1.175   119 H    0.973
   101   6 C    3.959 --   100 C    1.650   102 C    1.173   120 H    0.974
   102   6 C    3.921 --    62 C    1.367   103 N    1.197   101 C    1.173
   103   7 N    3.346 --    99 C    1.216   102 C    1.197    61 Co   0.638
   104   1 H    0.999 --    62 C    0.969
   105   1 H    0.996 --    64 C    0.974
   106   1 H    1.002 --    65 C    0.973
   107   1 H    1.004 --    70 C    0.971
   108   1 H    1.006 --    71 C    0.964
   109   1 H    1.006 --    76 C    0.964
   110   1 H    1.004 --    77 C    0.971
   111   1 H    1.002 --    79 C    0.973
   112   1 H    1.001 --    80 C    0.973
   113   1 H    1.001 --    85 C    0.973
   114   1 H    1.002 --    86 C    0.973
   115   1 H    1.003 --    91 C    0.971
   116   1 H    1.006 --    92 C    0.964
   117   1 H    1.006 --    97 C    0.964
   118   1 H    1.004 --    98 C    0.971
   119   1 H    1.002 --   100 C    0.973
   120   1 H    0.996 --   101 C    0.974
   121   6 C    3.931 --   122 C    2.474   123 C    1.308
   122   6 C    3.915 --   121 C    2.474    23 C    1.184   124 C    0.197
   123   6 C    3.925 --   124 C    2.471   121 C    1.308
   124   6 C    3.919 --   123 C    2.471   130 C    1.189   122 C    0.197
   125   6 C    3.925 --   126 C    2.462   127 C    1.316
   126   6 C    3.920 --   125 C    2.462   151 C    1.196   128 C    0.197
   127   6 C    3.930 --   128 C    2.465   125 C    1.316
   128   6 C    3.916 --   127 C    2.465    83 C    1.192   126 C    0.197
   129  27 Co   3.030 --   171 N    0.630   149 N    0.630   135 N    0.626
                           156 N    0.626
   130   6 C    3.921 --   170 C    1.259   131 C    1.258   124 C    1.189
   131   6 C    3.904 --   130 C    1.258   135 N    1.230   132 C    1.191
   132   6 C    3.960 --   133 C    1.634   131 C    1.191   172 H    0.973
   133   6 C    3.959 --   132 C    1.634   134 C    1.184   173 H    0.973
   134   6 C    3.915 --   136 C    1.318   135 N    1.200   133 C    1.184
   135   7 N    3.339 --   131 C    1.230   134 C    1.200   129 Co   0.626
   136   6 C    3.924 --   146 C    1.324   134 C    1.318   137 C    1.036
   137   6 C    3.985 --   145 C    1.383   138 C    1.383   136 C    1.036
   138   6 C    3.986 --   139 C    1.463   137 C    1.383   174 H    0.971
                           144 C    0.102
   139   6 C    3.987 --   138 C    1.463   140 C    1.388   175 H    0.964
                           145 C    0.102
   140   6 C    3.942 --   144 C    1.388   139 C    1.388   141 N    0.919
   141   7 N    3.866 --   142 O    1.456   143 O    1.455   140 C    0.919
   142   8 O    1.831 --   141 N    1.456   143 O    0.253
   143   8 O    1.831 --   141 N    1.455   142 O    0.253
   144   6 C    3.987 --   145 C    1.463   140 C    1.388   176 H    0.964
                           138 C    0.102
   145   6 C    3.984 --   144 C    1.463   137 C    1.383   177 H    0.971
                           139 C    0.102
   146   6 C    3.915 --   136 C    1.324   149 N    1.196   147 C    1.182
   147   6 C    3.959 --   148 C    1.635   146 C    1.182   178 H    0.973
   148   6 C    3.959 --   147 C    1.635   150 C    1.191   179 H    0.973
   149   7 N    3.338 --   150 C    1.233   146 C    1.196   129 Co   0.630
   150   6 C    3.903 --   151 C    1.255   149 N    1.233   148 C    1.191
   151   6 C    3.921 --   150 C    1.255   152 C    1.255   126 C    1.196
   152   6 C    3.903 --   151 C    1.255   156 N    1.232   153 C    1.192
   153   6 C    3.960 --   154 C    1.634   152 C    1.192   180 H    0.973
   154   6 C    3.959 --   153 C    1.634   155 C    1.184   181 H    0.973
   155   6 C    3.915 --   157 C    1.320   156 N    1.199   154 C    1.184
   156   7 N    3.339 --   152 C    1.232   155 C    1.199   129 Co   0.626
   157   6 C    3.924 --   167 C    1.322   155 C    1.320   158 C    1.036
   158   6 C    3.985 --   166 C    1.383   159 C    1.383   157 C    1.036
   159   6 C    3.985 --   160 C    1.463   158 C    1.383   182 H    0.971
                           165 C    0.102
   160   6 C    3.987 --   159 C    1.463   161 C    1.388   183 H    0.964
                           166 C    0.102
   161   6 C    3.942 --   165 C    1.388   160 C    1.388   162 N    0.919
   162   7 N    3.866 --   164 O    1.456   163 O    1.455   161 C    0.919
   163   8 O    1.831 --   162 N    1.455   164 O    0.253
   164   8 O    1.831 --   162 N    1.456   163 O    0.253
   165   6 C    3.987 --   166 C    1.463   161 C    1.388   184 H    0.964
                           159 C    0.102
   166   6 C    3.986 --   165 C    1.463   158 C    1.383   185 H    0.971
                           160 C    0.102
   167   6 C    3.915 --   157 C    1.322   171 N    1.198   168 C    1.182
   168   6 C    3.959 --   169 C    1.636   167 C    1.182   186 H    0.973
   169   6 C    3.959 --   168 C    1.636   170 C    1.190   187 H    0.973
   170   6 C    3.904 --   130 C    1.259   171 N    1.231   169 C    1.190
   171   7 N    3.338 --   170 C    1.231   167 C    1.198   129 Co   0.630
   172   1 H    1.001 --   132 C    0.973
   173   1 H    1.002 --   133 C    0.973
   174   1 H    1.004 --   138 C    0.971
   175   1 H    1.006 --   139 C    0.964
   176   1 H    1.006 --   144 C    0.964
   177   1 H    1.003 --   145 C    0.971
   178   1 H    1.002 --   147 C    0.973
   179   1 H    1.001 --   148 C    0.973
   180   1 H    1.001 --   153 C    0.973
   181   1 H    1.002 --   154 C    0.973
   182   1 H    1.003 --   159 C    0.971
   183   1 H    1.006 --   160 C    0.964
   184   1 H    1.006 --   165 C    0.964
   185   1 H    1.004 --   166 C    0.971
   186   1 H    1.002 --   168 C    0.973
   187   1 H    1.001 --   169 C    0.973
 ---------------------------------------------------------------------------

           -------------------------------------------------
          | TOTAL ENERGY             -370.308692363312 Eh   |
          | GRADIENT NORM               0.000487593345 Eh/α |
          | HOMO-LUMO GAP               0.003676444844 eV   |
           -------------------------------------------------

 * finished run on 2022/07/30 at 01:28:58.489
