   * xtb version 6.5.1 (b24c23e) compiled by 'conda@728c89f4b128' on 2022-07-12
          program call               : xtb Fe_Ph2OMe_C4_2.xyz --gfn 1 --opt -T 48

   ID    Z sym.   atoms
    1   26 Fe     1, 73
    2    6 C      2-6, 8-11, 13-21, 23-27, 29-33, 36, 37, 39-43, 45, 74-78,
                  80-83, 85-93, 95-99, 101-105, 108, 109, 111-115, 117,
                  145-148
    3    7 N      7, 12, 34, 35, 79, 84, 106, 107
    4    8 O      22, 28, 38, 44, 94, 100, 110, 116
    5    1 H      46-72, 118-144
########################################################################
[WARNING] Please study the warnings concerning your input carefully
-1- prog_main_parseArguments: Unknown option '-T' provided
########################################################################

          :  Hamiltonian                  GFN1-xTB          :
 * total energy  :  -258.6236377 Eh     change        0.1191410E-07 Eh
 * total energy  :  -258.7545742 Eh     change       -0.1309365E+00 Eh
 * total energy  :  -258.7983539 Eh     change       -0.4377965E-01 Eh
 * total energy  :  -258.8268398 Eh     change       -0.2848593E-01 Eh
 * total energy  :  -258.8402057 Eh     change       -0.1336586E-01 Eh
 * total energy  :  -258.8487887 Eh     change       -0.8583056E-02 Eh
 * total energy  :  -258.8518551 Eh     change       -0.3066414E-02 Eh
 * total energy  :  -258.8556792 Eh     change       -0.3824049E-02 Eh
 * total energy  :  -258.8578971 Eh     change       -0.2217876E-02 Eh
 * total energy  :  -258.8600158 Eh     change       -0.2118787E-02 Eh
 * total energy  :  -258.8648847 Eh     change       -0.2984908E-04 Eh
 * total energy  :  -258.8649139 Eh     change       -0.2919789E-04 Eh
 * total energy  :  -258.8649478 Eh     change       -0.3391198E-04 Eh
 * total energy  :  -258.8649748 Eh     change       -0.2702008E-04 Eh
 * total energy  :  -258.8649923 Eh     change       -0.1755017E-04 Eh
 * total energy  :  -258.8650079 Eh     change       -0.1554563E-04 Eh
 * total energy  :  -258.8650199 Eh     change       -0.1203238E-04 Eh
 * total energy  :  -258.8650269 Eh     change       -0.6957084E-05 Eh
 * total energy  :  -258.8650318 Eh     change       -0.4962675E-05 Eh
   *** GEOMETRY OPTIMIZATION CONVERGED AFTER 36 ITERATIONS ***

 final structure:
================
148
 xtb: 6.5.1 (b24c23e)
Fe          14.46376895685795       -0.00110757266111        0.07791180738180
C           11.06940161599738        0.09402463898520        0.03761643466587
C           11.72437826570342        0.89926754191095        0.94664407899224
C           11.05020588781688        1.75128505659616        1.88018365005262
C           12.01247645441600        2.41670952378733        2.56152204602495
C           13.27135581824959        1.96752797979364        2.04330865663292
N           13.08251603433512        1.03450063064446        1.06014717123356
C           14.49789509792846        2.44667304286203        2.48073829931618
C           15.70900630448384        1.98816501952409        1.99268690763614
C           16.97914357551620        2.47082817849591        2.44507609211701
C           17.92377328508206        1.76704691760159        1.77654578357998
N           15.87812922253179        1.00968781657935        1.04164217309816
C           17.22645612489166        0.86151733459954        0.91664515044279
C           17.87889635031780       -0.04970301941933        0.07752529586938
C           17.19722237094337       -0.93050410460203       -0.77057484752202
C           17.86618226060162       -1.87943939822655       -1.60501213023672
C           16.90301535886000       -2.53174743204263       -2.29833565367598
C           15.64891728390041       -1.97320648808638       -1.88987856945873
C           14.42487004558030       -2.37365079592119       -2.40274869288513
C           14.40662954594959       -3.42148592092760       -3.45984674247412
C           14.91533197476526       -3.15001791626143       -4.73732269154445
O           15.39668232906911       -1.89429039815865       -4.93000935024726
C           15.96834003136193       -1.52704124234065       -6.16917085237031
C           14.89777188445055       -4.13276463239781       -5.72655283170760
C           14.37807587559470       -5.38435448023991       -5.43301672455933
C           13.87277808353200       -5.67728736760784       -4.17535336980438
C           13.88453271550573       -4.69334065720666       -3.18734401245331
O           13.42116436569992       -4.88646719128565       -1.92467468301281
C           12.87675011486172       -6.13341443578246       -1.54291530359544
C           13.21372137284599       -1.84682026361167       -1.97034410870759
C           11.94077328583930       -2.23176148951861       -2.50685691301097
C           11.00099751634964       -1.54154515893246       -1.81972186194599
C           11.70164129620721       -0.72992570593901       -0.87024068752249
N           13.05542393018977       -0.90837908842335       -0.98661366726733
N           15.84670415896574       -0.99795130338914       -0.94100401574337
C           14.51131560348165        3.50854822103044        3.52815015327100
C           14.64284960876734        3.16886294673397        4.87940923951452
O           14.75120696916032        1.84152756140685        5.14764891493322
C           14.88900156362878        1.39030409029138        6.47987530480272
C           14.65428559025454        4.16539363773561        5.85539361502691
C           14.53670901955022        5.49294556424202        5.47191382370360
C           14.40778431222075        5.85096870955822        4.13829121565743
C           14.39455368775995        4.85455182418778        3.16243279585373
O           14.27625067424748        5.09640393743730        1.83090122486465
C           14.17926104455603        6.42172681345156        1.35004316631657
H            9.98514400930447        0.11266814991374        0.03401240856919
H            9.97852552289288        1.81791697537509        1.98337941349265
H           11.89844949351987        3.14734122313201        3.34636154604488
H           17.11462953761173        3.24481067472508        3.18330181251141
H           18.99711619742993        1.84087412582766        1.84801079657843
H           18.93486051061827       -2.01790045833632       -1.64147761467800
H           17.01916330258892       -3.32170537047251       -3.02221652294660
H           15.23434957795297       -1.58047074510761       -6.98236276949704
H           16.30219410490266       -0.49411554545751       -6.05481732367855
H           16.83007740405718       -2.15878440855593       -6.41658615806723
H           15.28312444755600       -3.93131305673790       -6.71707602398991
H           14.36670728040878       -6.14907148291369       -6.20190065735359
H           13.47576892575567       -6.66312655477784       -3.97354154616800
H           12.58069722221085       -6.02778465310393       -0.49759246676327
H           11.99449008781271       -6.38729964733777       -2.14304825124660
H           13.61694114577887       -6.93820486509618       -1.62810561201234
H           11.79960223697038       -2.94213616453196       -3.30518589579479
H            9.92822984189522       -1.56515645615662       -1.93005342549699
H           14.96105861671358        0.30250431584428        6.42624916316054
H           14.01862485894753        1.66412251956666        7.08859499286679
H           15.79769458598849        1.78886469109518        6.94716343119946
H           14.75351237682568        3.91694322501731        6.90358611241386
H           14.54603375246828        6.26754128277079        6.23095788805884
H           14.31858035554416        6.89498286390341        3.86927971002783
H           15.06418762532948        7.01183435461902        1.61782015471393
H           14.11423102651913        6.34633128067404        0.26305480489583
H           13.28089790383004        6.92271669679786        1.73078805050652
Fe          27.88919450053245       -0.07449739482880       -0.01155122313027
C           31.28342713347588       -0.01348176795180       -0.10547159427523
C           30.62866080007572       -0.79784006216689       -1.03270610450506
C           31.30314525338827       -1.59702123067765       -2.01162775200918
C           30.34097217793535       -2.17973969418930       -2.76502363886623
C           29.08184621958095       -1.73597472076640       -2.24274981755013
N           29.27046463409287       -0.89552910090820       -1.17930531933554
C           27.85518427079317       -2.10731756567604       -2.77451417124654
C           26.64390622612655       -1.69430414392680       -2.24772388669096
C           25.37374034343476       -2.07862159016463       -2.78609430322399
C           24.42914243997282       -1.51639978571060       -1.99477379913903
N           26.47477299435097       -0.88939611401612       -1.14589076371198
C           25.12648975659235       -0.78878452073597       -0.97991337009810
C           24.47392255638397       -0.08422742314450        0.03884364470041
C           25.15546423290204        0.63308408654648        1.02915922993252
C           24.48631497568070        1.32599585628842        2.08574174183161
C           25.44944836729717        1.91944257383100        2.83009576750007
C           26.70369661166834        1.59294221824353        2.22032505580585
C           27.92778700901897        2.04224311293122        2.69080441843139
C           27.94604068291040        2.93873258542733        3.87898446840007
C           27.43929546269546        4.24260798242475        3.79239806390261
O           26.95954662918006        4.61345375198926        2.57666364837211
C           26.39005770113080        5.89326374960992        2.38972524907562
C           27.45704749416115        5.08120472774357        4.90645352563137
C           27.97500904917502        4.61107377788916        6.10370764653664
C           28.47839346936385        3.32374294704590        6.21434828611709
C           28.46644192183648        2.48652340840555        5.09928308148282
O           28.92808399791987        1.20859344847282        5.11029366730408
C           29.47080694185520        0.65177585980160        6.29029999704987
C           29.13904879171910        1.68906583168068        2.10812391080424
C           30.41191582618218        2.16481398801848        2.56626808806692
C           31.35167885652923        1.58578189490351        1.78314018253547
C           30.65110537033543        0.76353870848770        0.84279542995130
N           29.29739999411526        0.85121636187427        1.03743481287993
N           26.50602346470367        0.79159809008487        1.12057345963405
C           27.84187217629431       -2.99426490805755       -3.97361091092856
C           27.70370643039107       -4.37938521023679       -3.82865206961003
O           27.58927140340671       -4.83198297827503       -2.55288902168449
C           27.44620261169261       -6.21412819511172       -2.29476295165909
C           27.69254878100133       -5.20482372133331       -4.95305051749992
C           27.81679204072575       -4.63826598803645       -6.21275047009712
C           27.95221447251300       -3.26802187686556       -6.37840706427394
C           27.96539750742442       -2.44271673592746       -5.25412973679198
O           28.08956376819300       -1.09088631913113       -5.30522690375222
C           28.19181943667526       -0.42804349082602       -6.54913126355940
H           32.36763576664239       -0.00483183380915       -0.12522558214549
H           32.37493854184730       -1.68567497468166       -2.09522807053242
H           30.45523603311870       -2.85162616397984       -3.60066759269887
H           25.23818248892176       -2.70242850006406       -3.65491834118235
H           23.35580993247466       -1.57939601689620       -2.07603222168142
H           23.41755849467303        1.34332113743688        2.22729394718898
H           25.33317916006927        2.52459535009835        3.71428559686623
H           27.12514002756072        6.68932822433358        2.55947254385656
H           26.05720529405614        5.92820081641118        1.35075479148149
H           25.52796185526075        6.04922341131570        3.04955224789247
H           27.07318328892121        6.09089801002696        4.84828575023738
H           27.98652667248209        5.26276472847046        6.97046626651304
H           28.87410510233677        2.98255788918570        7.16156939846697
H           29.76568413637578       -0.36811211035520        6.03656816873648
H           30.35354942958940        1.20826543421876        6.62806468461849
H           28.72992982943112        0.62205231332174        7.09841271664461
H           30.55304377995063        2.85186155696023        3.38476496978557
H           32.42438521439175        1.69238379996292        1.82184039156532
H           27.37078117965689       -6.31444569206224       -1.21050289779392
H           28.31572580000660       -6.78091020296057       -2.64938439761188
H           26.53747995125252       -6.61746402344308       -2.75787333148116
H           27.58838482812094       -6.27715942751444       -4.85544001504197
H           27.80760364302052       -5.28028286317567       -7.08679985296462
H           28.04649321401520       -2.85466706773529       -7.37366493316813
H           27.30780596046943       -0.60686527298913       -7.17328682372974
H           28.25984607253475        0.63718858666253       -6.32084405168060
H           29.09049293210706       -0.73722900101283       -7.09667702809491
C           20.50329641476391       -0.08794385880143        0.08296194102854
C           19.27960535330135       -0.07660162099046        0.08372665284215
C           21.84963180925773       -0.09490785597408        0.07587922059576
C           23.07322518778870       -0.09418409031069        0.06446182061582

          :  Hamiltonian                  GFN1-xTB          :
         :: total energy            -258.865031837761 Eh    ::
         :: gradient norm              0.000310515990 Eh/a0 ::
         :: HOMO-LUMO gap              0.095886017696 eV    ::
         :: SCC energy              -262.458907775532 Eh    ::
         :: repulsion energy           3.723571181057 Eh    ::

    * Orbital Energies and Occupations

         #    Occupation            Energy/Eh            Energy/eV
      -------------------------------------------------------------
         1        2.0000           -0.8060529             -21.9338
       ...           ...                  ...                  ...
       219        2.0000           -0.4106145             -11.1734
       220        2.0000           -0.4106008             -11.1730
       221        2.0000           -0.4102776             -11.1642
       222        2.0000           -0.3823699             -10.4048
       223        2.0000           -0.3813263             -10.3764
       224        2.0000           -0.3813248             -10.3764
       225        1.9910           -0.3735000             -10.1635
       226        1.9908           -0.3734814             -10.1629
       227        1.9457           -0.3717703             -10.1164
       228        1.9456           -0.3717677             -10.1163
       229        1.9445           -0.3717496             -10.1158
       230        1.9432           -0.3717256             -10.1152
       231        1.7468           -0.3702052             -10.0738 (HOMO)
       232        0.2892           -0.3666814              -9.9779 (LUMO)
       233        0.2032           -0.3662998              -9.9675
       234                         -0.3240306              -8.8173
       235                         -0.3113156              -8.4713
       236                         -0.3113136              -8.4713
       237                         -0.3096063              -8.4248
       238                         -0.2868001              -7.8042
       239                         -0.2867702              -7.8034
       240                         -0.2824943              -7.6871
       241                         -0.2746347              -7.4732
       242                         -0.2544536              -6.9240
       ...                                ...                  ...
       494                          1.5259404              41.5230
      -------------------------------------------------------------
                  HL-Gap            0.0035237 Eh            0.0959 eV

Wiberg/Mayer (AO) data.
largest (>0.10) Wiberg bond orders for each atom

     #   Z sym  total        # sym  WBO       # sym  WBO       # sym  WBO
 ---------------------------------------------------------------------------
     1  26 Fe   3.161 --    34 N    0.671     7 N    0.667    12 N    0.663
                            35 N    0.662
     2   6 C    3.925 --    33 C    1.364     3 C    1.361    46 H    0.971
     3   6 C    3.926 --     2 C    1.361     7 N    1.213     4 C    1.173
     4   6 C    3.959 --     5 C    1.650     3 C    1.173    47 H    0.975
     5   6 C    3.962 --     4 C    1.650     6 C    1.176    48 H    0.974
     6   6 C    3.920 --     8 C    1.321     7 N    1.222     5 C    1.176
     7   7 N    3.381 --     6 C    1.222     3 C    1.213     1 Fe   0.667
     8   6 C    3.926 --     9 C    1.345     6 C    1.321    36 C    1.003
     9   6 C    3.917 --     8 C    1.345    12 N    1.196    10 C    1.179
    10   6 C    3.957 --    11 C    1.640     9 C    1.179    49 H    0.974
    11   6 C    3.960 --    10 C    1.640    13 C    1.187    50 H    0.974
    12   7 N    3.382 --    13 C    1.251     9 C    1.196     1 Fe   0.663
    13   6 C    3.907 --    12 N    1.251    14 C    1.249    11 C    1.187
    14   6 C    3.923 --    15 C    1.251    13 C    1.249   146 C    1.202
    15   6 C    3.907 --    14 C    1.251    35 N    1.248    16 C    1.187
    16   6 C    3.960 --    17 C    1.640    15 C    1.187    51 H    0.974
    17   6 C    3.958 --    16 C    1.640    18 C    1.180    52 H    0.974
    18   6 C    3.916 --    19 C    1.339    35 N    1.199    17 C    1.180
    19   6 C    3.926 --    18 C    1.339    30 C    1.316    20 C    1.017
    20   6 C    3.976 --    27 C    1.341    21 C    1.341    19 C    1.017
                            25 C    0.100
    21   6 C    3.903 --    24 C    1.362    20 C    1.341    22 O    1.033
    22   8 O    2.146 --    21 C    1.033    23 C    0.935
    23   6 C    3.907 --    54 H    0.983    55 H    0.980    53 H    0.980
                            22 O    0.935
    24   6 C    3.983 --    25 C    1.442    21 C    1.362    56 H    0.969
    25   6 C    3.992 --    24 C    1.442    26 C    1.442    57 H    0.974
                            20 C    0.100
    26   6 C    3.983 --    25 C    1.442    27 C    1.362    58 H    0.969
    27   6 C    3.902 --    26 C    1.362    20 C    1.341    28 O    1.032
    28   8 O    2.146 --    27 C    1.032    29 C    0.935
    29   6 C    3.907 --    59 H    0.983    60 H    0.980    61 H    0.980
                            28 O    0.935
    30   6 C    3.919 --    19 C    1.316    34 N    1.225    31 C    1.176
    31   6 C    3.962 --    32 C    1.651    30 C    1.176    62 H    0.974
    32   6 C    3.959 --    31 C    1.651    33 C    1.172    63 H    0.975
    33   6 C    3.926 --     2 C    1.364    34 N    1.211    32 C    1.172
    34   7 N    3.383 --    30 C    1.225    33 C    1.211     1 Fe   0.671
    35   7 N    3.381 --    15 C    1.248    18 C    1.199     1 Fe   0.662
    36   6 C    3.977 --    37 C    1.347    43 C    1.346     8 C    1.003
                            41 C    0.102
    37   6 C    3.905 --    40 C    1.360    36 C    1.347    38 O    1.033
    38   8 O    2.145 --    37 C    1.033    39 C    0.935
    39   6 C    3.907 --    64 H    0.983    65 H    0.980    66 H    0.980
                            38 O    0.935
    40   6 C    3.983 --    41 C    1.443    37 C    1.360    67 H    0.969
    41   6 C    3.995 --    40 C    1.443    42 C    1.443    68 H    0.974
                            36 C    0.102
    42   6 C    3.983 --    41 C    1.443    43 C    1.360    69 H    0.969
    43   6 C    3.905 --    42 C    1.360    36 C    1.346    44 O    1.033
    44   8 O    2.146 --    43 C    1.033    45 C    0.935
    45   6 C    3.908 --    71 H    0.983    72 H    0.980    70 H    0.980
                            44 O    0.935
    46   1 H    1.001 --     2 C    0.971
    47   1 H    0.998 --     4 C    0.975
    48   1 H    1.002 --     5 C    0.974
    49   1 H    1.002 --    10 C    0.974
    50   1 H    1.003 --    11 C    0.974
    51   1 H    1.003 --    16 C    0.974
    52   1 H    1.002 --    17 C    0.974
    53   1 H    1.009 --    23 C    0.980
    54   1 H    1.015 --    23 C    0.983
    55   1 H    1.009 --    23 C    0.980
    56   1 H    1.000 --    24 C    0.969
    57   1 H    1.003 --    25 C    0.974
    58   1 H    1.000 --    26 C    0.969
    59   1 H    1.015 --    29 C    0.983
    60   1 H    1.009 --    29 C    0.980
    61   1 H    1.009 --    29 C    0.980
    62   1 H    1.002 --    31 C    0.974
    63   1 H    0.998 --    32 C    0.975
    64   1 H    1.015 --    39 C    0.983
    65   1 H    1.009 --    39 C    0.980
    66   1 H    1.009 --    39 C    0.980
    67   1 H    1.000 --    40 C    0.969
    68   1 H    1.003 --    41 C    0.974
    69   1 H    0.999 --    42 C    0.969
    70   1 H    1.009 --    45 C    0.980
    71   1 H    1.015 --    45 C    0.983
    72   1 H    1.009 --    45 C    0.980
    73  26 Fe   3.160 --   106 N    0.671    79 N    0.667    84 N    0.662
                           107 N    0.662
    74   6 C    3.925 --   105 C    1.364    75 C    1.361   118 H    0.971
    75   6 C    3.926 --    74 C    1.361    79 N    1.213    76 C    1.173
    76   6 C    3.959 --    77 C    1.650    75 C    1.173   119 H    0.975
    77   6 C    3.962 --    76 C    1.650    78 C    1.176   120 H    0.974
    78   6 C    3.920 --    80 C    1.321    79 N    1.223    77 C    1.176
    79   7 N    3.381 --    78 C    1.223    75 C    1.213    73 Fe   0.667
    80   6 C    3.926 --    81 C    1.344    78 C    1.321   108 C    1.003
    81   6 C    3.917 --    80 C    1.344    84 N    1.197    82 C    1.179
    82   6 C    3.957 --    83 C    1.640    81 C    1.179   121 H    0.974
    83   6 C    3.960 --    82 C    1.640    85 C    1.187   122 H    0.974
    84   7 N    3.382 --    85 C    1.251    81 C    1.197    73 Fe   0.662
    85   6 C    3.907 --    84 N    1.251    86 C    1.249    83 C    1.187
    86   6 C    3.923 --    87 C    1.251    85 C    1.249   148 C    1.202
    87   6 C    3.907 --    86 C    1.251   107 N    1.248    88 C    1.187
    88   6 C    3.960 --    89 C    1.640    87 C    1.187   123 H    0.974
    89   6 C    3.958 --    88 C    1.640    90 C    1.180   124 H    0.974
    90   6 C    3.916 --    91 C    1.339   107 N    1.199    89 C    1.180
    91   6 C    3.926 --    90 C    1.339   102 C    1.316    92 C    1.017
    92   6 C    3.976 --    99 C    1.341    93 C    1.341    91 C    1.017
                            97 C    0.100
    93   6 C    3.903 --    96 C    1.362    92 C    1.341    94 O    1.033
    94   8 O    2.146 --    93 C    1.033    95 C    0.935
    95   6 C    3.907 --   126 H    0.983   127 H    0.980   125 H    0.980
                            94 O    0.935
    96   6 C    3.983 --    97 C    1.442    93 C    1.362   128 H    0.969
    97   6 C    3.992 --    96 C    1.442    98 C    1.442   129 H    0.974
                            92 C    0.100
    98   6 C    3.983 --    97 C    1.442    99 C    1.362   130 H    0.969
    99   6 C    3.902 --    98 C    1.362    92 C    1.341   100 O    1.032
   100   8 O    2.146 --    99 C    1.032   101 C    0.935
   101   6 C    3.907 --   131 H    0.983   132 H    0.980   133 H    0.980
                           100 O    0.935
   102   6 C    3.919 --    91 C    1.316   106 N    1.225   103 C    1.176
   103   6 C    3.962 --   104 C    1.650   102 C    1.176   134 H    0.974
   104   6 C    3.959 --   103 C    1.650   105 C    1.172   135 H    0.975
   105   6 C    3.926 --    74 C    1.364   106 N    1.211   104 C    1.172
   106   7 N    3.382 --   102 C    1.225   105 C    1.211    73 Fe   0.671
   107   7 N    3.381 --    87 C    1.248    90 C    1.199    73 Fe   0.662
   108   6 C    3.977 --   109 C    1.347   115 C    1.346    80 C    1.003
                           113 C    0.102
   109   6 C    3.905 --   112 C    1.360   108 C    1.347   110 O    1.033
   110   8 O    2.145 --   109 C    1.033   111 C    0.935
   111   6 C    3.907 --   136 H    0.983   137 H    0.980   138 H    0.980
                           110 O    0.935
   112   6 C    3.983 --   113 C    1.443   109 C    1.360   139 H    0.969
   113   6 C    3.995 --   112 C    1.443   114 C    1.443   140 H    0.974
                           108 C    0.102
   114   6 C    3.983 --   113 C    1.443   115 C    1.360   141 H    0.969
   115   6 C    3.905 --   114 C    1.360   108 C    1.346   116 O    1.033
   116   8 O    2.146 --   115 C    1.033   117 C    0.935
   117   6 C    3.908 --   143 H    0.983   144 H    0.980   142 H    0.980
                           116 O    0.935
   118   1 H    1.001 --    74 C    0.971
   119   1 H    0.998 --    76 C    0.975
   120   1 H    1.002 --    77 C    0.974
   121   1 H    1.002 --    82 C    0.974
   122   1 H    1.003 --    83 C    0.974
   123   1 H    1.003 --    88 C    0.974
   124   1 H    1.002 --    89 C    0.974
   125   1 H    1.009 --    95 C    0.980
   126   1 H    1.015 --    95 C    0.983
   127   1 H    1.009 --    95 C    0.980
   128   1 H    1.000 --    96 C    0.969
   129   1 H    1.003 --    97 C    0.974
   130   1 H    1.000 --    98 C    0.969
   131   1 H    1.015 --   101 C    0.983
   132   1 H    1.009 --   101 C    0.980
   133   1 H    1.009 --   101 C    0.980
   134   1 H    1.002 --   103 C    0.974
   135   1 H    0.998 --   104 C    0.975
   136   1 H    1.015 --   111 C    0.983
   137   1 H    1.009 --   111 C    0.980
   138   1 H    1.009 --   111 C    0.980
   139   1 H    1.000 --   112 C    0.969
   140   1 H    1.003 --   113 C    0.974
   141   1 H    0.999 --   114 C    0.969
   142   1 H    1.009 --   117 C    0.980
   143   1 H    1.015 --   117 C    0.983
   144   1 H    1.009 --   117 C    0.980
   145   6 C    3.923 --   146 C    2.449   147 C    1.325
   146   6 C    3.916 --   145 C    2.449    14 C    1.202   148 C    0.196
   147   6 C    3.923 --   148 C    2.449   145 C    1.325
   148   6 C    3.916 --   147 C    2.449    86 C    1.202   146 C    0.196
 ---------------------------------------------------------------------------

           -------------------------------------------------
          | TOTAL ENERGY             -258.865031837761 Eh   |
          | GRADIENT NORM               0.000310515990 Eh/α |
          | HOMO-LUMO GAP               0.095886017696 eV   |
           -------------------------------------------------

 * finished run on 2022/07/29 at 16:44:01.933
