   * xtb version 6.5.1 (b24c23e) compiled by 'conda@728c89f4b128' on 2022-07-12
          program call               : xtb Ni_p-CP_C8_2.xyz --gfn 1 --opt -T 48

   ID    Z sym.   atoms
    1   28 Ni     1, 63
    2    6 C      2-6, 8-11, 13-24, 27-32, 35-39, 42, 43, 64-68, 70-73,
                  75-86, 89-94, 97-101, 104, 105, 125-132
    3    7 N      7, 12, 33, 34, 69, 74, 95, 96
    4    8 O      25, 26, 40, 41, 87, 88, 102, 103
    5    1 H      44-62, 106-124
########################################################################
[WARNING] Please study the warnings concerning your input carefully
-1- prog_main_parseArguments: Unknown option '-T' provided
########################################################################

          :  Hamiltonian                  GFN1-xTB          :
 * total energy  :  -252.0334271 Eh     change       -0.8568293E-09 Eh
 * total energy  :  -252.2895381 Eh     change       -0.2561110E+00 Eh
 * total energy  :  -252.3708590 Eh     change       -0.8132089E-01 Eh
 * total energy  :  -252.4026941 Eh     change       -0.3183512E-01 Eh
 * total energy  :  -252.4160089 Eh     change       -0.1331482E-01 Eh
 * total energy  :  -252.4223987 Eh     change       -0.6389787E-02 Eh
 * total energy  :  -252.4256813 Eh     change       -0.3282650E-02 Eh
 * total energy  :  -252.4260595 Eh     change       -0.3781828E-03 Eh
 * total energy  :  -252.4281956 Eh     change       -0.2136043E-02 Eh
 * total energy  :  -252.4288318 Eh     change       -0.6362663E-03 Eh
 * total energy  :  -252.4313593 Eh     change       -0.1039148E-04 Eh
 * total energy  :  -252.4313676 Eh     change       -0.8326099E-05 Eh
 * total energy  :  -252.4313766 Eh     change       -0.9070809E-05 Eh
 * total energy  :  -252.4313874 Eh     change       -0.1079474E-04 Eh
 * total energy  :  -252.4313941 Eh     change       -0.6667139E-05 Eh
 * total energy  :  -252.4314003 Eh     change       -0.6200807E-05 Eh
 * total energy  :  -252.4314065 Eh     change       -0.6158650E-05 Eh
 * total energy  :  -252.4314151 Eh     change       -0.8642513E-05 Eh
 * total energy  :  -252.4314168 Eh     change       -0.1703947E-05 Eh
   *** GEOMETRY OPTIMIZATION CONVERGED AFTER 44 ITERATIONS ***

 final structure:
================
132
 xtb: 6.5.1 (b24c23e)
Ni          15.16798111985410       -0.07940035924101        0.01733851201574
C           11.77628029112015       -0.16614627712004        0.04679640295598
C           12.43799788657947       -0.32896788404282        1.24582096888547
C           11.76832738387406       -0.51690310769680        2.49661795422876
C           12.72580427024411       -0.51852694966416        3.45281999113338
C           13.98177701706120       -0.34383007399245        2.78340985101186
N           13.79589481006492       -0.24545923107315        1.42717668785182
C           15.19591742421999       -0.19911025861089        3.44159181627206
C           16.39982651162480       -0.02659233354559        2.77238088902104
C           17.66564071971005        0.07916253020241        3.43278521607172
C           18.61123528387371        0.10805105043063        2.46361799373400
N           16.56942962558714       -0.04595853128946        1.40617344731212
C           17.92225637502707        0.01683690780785        1.21587647945472
C           18.58109815782119       -0.06587846083623       -0.01421170693155
C           17.89940779455219       -0.13446703310940       -1.23223459135279
C           18.56296040170346       -0.23463304331725       -2.49285226110388
C           17.60024149525629       -0.17879462231260       -3.44417381913524
C           16.35070741529515       -0.03745471854909       -2.75989532128130
C           15.13038039927306        0.11573859129447       -3.40522306105927
C           15.11546639079201        0.20559735227269       -4.88380861903818
C           14.43414235881638       -0.74907091594005       -5.64360950452838
C           14.41968482942086       -0.66220992868444       -7.02344955113514
C           15.08345839291832        0.38229972381863       -7.66968800680895
C           15.03506866096620        0.43506995108854       -9.15057433565424
O           15.71255504661747        1.46825116926437       -9.67345204016346
O           14.45020833490963       -0.36057413515037       -9.84069080001930
C           15.76549533717647        1.33779942642409       -6.91573895610213
C           15.78166235848571        1.24691106250346       -5.53487199039949
C           13.92242467583309        0.17738399019202       -2.72179358452887
C           12.65079649899078        0.36131864245933       -3.35860508819788
C           11.71031610969253        0.26700486590596       -2.39002711685741
C           12.40826924808839        0.04400405284247       -1.16086201362652
N           13.76508461976112        0.02354509575861       -1.36723538792860
N           16.54422349161598       -0.04792765098518       -1.39719767671834
C           15.20899257096565       -0.23531923237822        4.92420932074802
C           14.87658016890744       -1.40805469065167        5.60619730895198
C           14.89149093782017       -1.43793422928666        6.98872064582414
C           15.23504275133302       -0.29521287622083        7.71344927224337
C           15.23465977017031       -0.37622796618661        9.19395601422353
O           15.58557912058768        0.77111741137604        9.79426971441456
O           14.94836966962063       -1.36427456823572        9.82108920516146
C           15.56620921782730        0.87861653038645        7.03604111057042
C           15.55481933521136        0.90520334910187        5.65227668885013
H           10.69288683175595       -0.19130569920399        0.05637781937867
H           10.70058582586934       -0.61719657461287        2.60896864157494
H           12.60459290360354       -0.61520894327314        4.51941973063217
H           17.80395612111422        0.10837510132135        4.50113683880642
H           19.68201041694713        0.17416282683342        2.56878009455114
H           19.62916384462200       -0.33363177529968       -2.61727182094155
H           17.71514495793064       -0.23562971176813       -4.51419874326659
H           13.92918054549817       -1.56827391000656       -5.14450386969597
H           13.89596144586823       -1.40172586809476       -7.61921228391381
H           15.63165328511544        1.43121663407681      -10.64036084497721
H           16.28004938624499        2.15144576044407       -7.41308366449986
H           16.30103744705496        1.99657868152184       -4.94863338058159
H           12.50901946339830        0.54187308254880       -4.41167905431676
H           10.63834488290054        0.34265609788015       -2.47899314049081
H           14.62081834639129       -2.29921123215580        5.04447185026681
H           14.63960152553024       -2.34589556703672        7.52563231432007
H           15.55961245222835        0.63588838484462       10.75544116260664
H           15.83050990479440        1.76858467119679        7.59479751823928
H           15.80241401337232        1.81963831530409        5.12514454817526
Ni          33.73652804115931       -0.07503481346016       -0.02845075316999
C           37.12776179284014       -0.16219816130422       -0.06648814640990
C           36.46617637063215       -0.18983912768888       -1.27631617826112
C           37.13572551410974       -0.23854112233321       -2.54028918965992
C           36.17874054043109       -0.12873451738325       -3.49068844890247
C           34.92309704200942       -0.02540416911725       -2.80600586744821
N           35.10863995836100       -0.08201260947684       -1.44732316096680
C           33.71020884594360        0.20064421757352       -3.44332414441588
C           32.50659356363285        0.30007436279767       -2.75884418070427
C           31.24146675679601        0.48707838116079       -3.40235273145440
C           30.29529408186438        0.40277710717441       -2.43693496734883
N           32.33602935514242        0.12013466865508       -1.40452249053158
C           30.98326497622158        0.16238974060174       -1.20861714610611
C           30.32377913468855       -0.06626666948750        0.00252230317742
C           31.00504059208630       -0.27846513855353        1.20418255877012
C           30.34138911750284       -0.52742715846782        2.44396868660066
C           31.30363123093418       -0.58065869840858        3.39594406472767
C           32.55302001957131       -0.35699556455246        2.73374332898211
C           33.77261673001388       -0.27535367907401        3.39338957318359
C           33.78704140055930       -0.35697475741914        4.87239347464615
C           34.47335261779143       -1.38987400378955        5.51666074663422
C           34.48829010268290       -1.46317614847331        6.89725333300933
C           33.81996330032082       -0.50363053153731        7.66004605594363
C           33.87032220641496       -0.62163720332140        9.13709476903303
O           33.18871073214045        0.34099484335436        9.77629324781582
O           34.46003557023693       -1.48866165720535        9.73030430902348
C           33.13243659219039        0.52906379456148        7.02172871789494
C           33.11582741243215        0.59848986547173        5.63960281122344
C           34.98061336366421       -0.13224483097020        2.72225889847999
C           36.25175348119322       -0.01884606884971        3.37628772213151
C           37.19269056489579       -0.00233417086042        2.40367569698757
C           36.49548861731533       -0.08704032587429        1.15689489891899
N           35.13863564784387       -0.13168892955054        1.35909799638136
N           32.36002017941073       -0.20896776278801        1.37900124062453
C           33.69782635433962        0.33588353931255       -4.92022259775405
C           34.02321332080501       -0.75250322730850       -5.73289703262186
C           34.00776342934873       -0.62306668296769       -7.10965484061403
C           33.67121753998809        0.59755286463485       -7.69778691646306
C           33.67152128131595        0.68761840652712       -9.17772439973795
O           33.32494529576974        1.89759879268801       -9.64199103515153
O           33.95047438385424       -0.22376201402621       -9.91446507337254
C           33.34747984256737        1.68766117825333       -6.88953644441823
C           33.35912238405233        1.55474584347395       -5.51190399122531
H           38.21113107490832       -0.18728360728860       -0.07859059550126
H           38.20312989491047       -0.32968008345850       -2.66316149685858
H           36.30015241310228       -0.10526375276573       -4.56138442923803
H           31.10387589153254        0.64354169351258       -4.45968617982202
H           29.22472208812001        0.48339726305820       -2.53383991237219
H           29.27542251592464       -0.64297510611381        2.55539094017800
H           31.18844537667297       -0.76243019871618        4.45191844144313
H           34.98196207893232       -2.14333725411163        4.92607087064555
H           35.01609949185905       -2.26400221184043        7.40341155279280
H           33.27164707924885        0.19323859116224       10.73239621116611
H           32.61407190589166        1.27705523705770        7.60990905099800
H           32.59233578792079        1.40837007406860        5.14413692617501
H           36.39295915795972        0.04250004878027        4.44304325505448
H           38.26451625422115        0.06440687614385        2.50113288011033
H           34.27378101973668       -1.70384926993930       -5.27763272697048
H           34.25449751877930       -1.46457608688634       -7.74769722924770
H           33.34862561293863        1.87306560370775      -10.61237716446463
H           33.08847653023775        2.63757734194700       -7.34197238489925
H           33.11706304904724        2.40391124455706       -4.88286046666297
C           19.98583378363400       -0.07409322370762       -0.02418473505877
C           21.20994801375567       -0.08032568190285       -0.02099771680235
C           22.55305993476387       -0.08357717839879       -0.01507253131476
C           23.78330178615371       -0.08626261683752       -0.00502121262060
C           25.12160026481462       -0.08687018617142        0.00320207385748
C           26.35189142257739       -0.08551399762927        0.01164613852387
C           27.69500205725397       -0.08096848612337        0.01636015596004
C           28.91907283047594       -0.07659179356927        0.01099981337421

          :  Hamiltonian                  GFN1-xTB          :
         :: total energy            -252.431416817712 Eh    ::
         :: gradient norm              0.000667685173 Eh/a0 ::
         :: HOMO-LUMO gap              1.222587037865 eV    ::
         :: SCC energy              -256.185745729309 Eh    ::
         :: repulsion energy           3.869815399471 Eh    ::

    * Orbital Energies and Occupations

         #    Occupation            Energy/Eh            Energy/eV
      -------------------------------------------------------------
         1        2.0000           -0.8335642             -22.6824
       ...           ...                  ...                  ...
       213        2.0000           -0.4164750             -11.3329
       214        2.0000           -0.4081212             -11.1055
       215        2.0000           -0.4081094             -11.1052
       216        2.0000           -0.4076400             -11.0924
       217        2.0000           -0.4076275             -11.0921
       218        2.0000           -0.4068698             -11.0715
       219        2.0000           -0.4068553             -11.0711
       220        2.0000           -0.4057942             -11.0422
       221        2.0000           -0.4057756             -11.0417
       222        2.0000           -0.4057168             -11.0401
       223        2.0000           -0.4056989             -11.0396
       224        2.0000           -0.4030932             -10.9687
       225        2.0000           -0.3940296             -10.7221 (HOMO)
       226                         -0.3491003              -9.4995 (LUMO)
       227                         -0.3407757              -9.2730
       228                         -0.3407697              -9.2728
       229                         -0.3393588              -9.2344
       230                         -0.3380236              -9.1981
       231                         -0.3379332              -9.1956
       232                         -0.3171083              -8.6290
       233                         -0.3152449              -8.5783
       234                         -0.3102806              -8.4432
       235                         -0.3101407              -8.4394
       236                         -0.3082664              -8.3884
       ...                                ...                  ...
       462                          1.5985903              43.4999
      -------------------------------------------------------------
                  HL-Gap            0.0449292 Eh            1.2226 eV

Wiberg/Mayer (AO) data.
largest (>0.10) Wiberg bond orders for each atom

     #   Z sym  total        # sym  WBO       # sym  WBO       # sym  WBO
 ---------------------------------------------------------------------------
     1  28 Ni   3.011 --     7 N    0.664    33 N    0.664    12 N    0.661
                            34 N    0.661
     2   6 C    3.935 --     3 C    1.364    32 C    1.364    44 H    0.970
     3   6 C    3.922 --     2 C    1.364     7 N    1.213     4 C    1.174
     4   6 C    3.960 --     5 C    1.651     3 C    1.174    45 H    0.975
     5   6 C    3.963 --     4 C    1.651     6 C    1.176    46 H    0.972
     6   6 C    3.919 --     8 C    1.323     7 N    1.221     5 C    1.176
     7   7 N    3.402 --     6 C    1.221     3 C    1.213     1 Ni   0.664
     8   6 C    3.938 --     9 C    1.329     6 C    1.323    35 C    1.023
     9   6 C    3.914 --     8 C    1.329    12 N    1.206    10 C    1.183
    10   6 C    3.958 --    11 C    1.637     9 C    1.183    47 H    0.973
    11   6 C    3.961 --    10 C    1.637    13 C    1.191    48 H    0.973
    12   7 N    3.406 --    13 C    1.239     9 C    1.206     1 Ni   0.661
    13   6 C    3.902 --    14 C    1.262    12 N    1.239    11 C    1.191
    14   6 C    3.945 --    15 C    1.263    13 C    1.262   125 C    1.186
    15   6 C    3.902 --    14 C    1.263    34 N    1.238    16 C    1.191
    16   6 C    3.961 --    17 C    1.636    15 C    1.191    49 H    0.973
    17   6 C    3.959 --    16 C    1.636    18 C    1.184    50 H    0.973
    18   6 C    3.914 --    19 C    1.326    34 N    1.207    17 C    1.184
    19   6 C    3.938 --    18 C    1.326    29 C    1.321    20 C    1.030
    20   6 C    3.987 --    28 C    1.386    21 C    1.385    19 C    1.030
    21   6 C    3.987 --    22 C    1.464    20 C    1.385    51 H    0.972
                            27 C    0.103
    22   6 C    3.990 --    21 C    1.464    23 C    1.385    52 H    0.968
                            28 C    0.103
    23   6 C    3.983 --    27 C    1.389    22 C    1.385    24 C    1.009
    24   6 C    3.836 --    26 O    1.690    25 O    1.088    23 C    1.009
    25   8 O    2.097 --    24 C    1.088    53 H    0.838    26 O    0.129
    26   8 O    1.958 --    24 C    1.690    25 O    0.129
    27   6 C    3.991 --    28 C    1.461    23 C    1.389    54 H    0.970
                            21 C    0.103
    28   6 C    3.988 --    27 C    1.461    20 C    1.386    55 H    0.972
                            22 C    0.103
    29   6 C    3.920 --    19 C    1.321    33 N    1.222    30 C    1.176
    30   6 C    3.963 --    31 C    1.650    29 C    1.176    56 H    0.972
    31   6 C    3.960 --    30 C    1.650    32 C    1.174    57 H    0.975
    32   6 C    3.922 --     2 C    1.364    33 N    1.213    31 C    1.174
    33   7 N    3.402 --    29 C    1.222    32 C    1.213     1 Ni   0.664
    34   7 N    3.406 --    15 C    1.238    18 C    1.207     1 Ni   0.661
    35   6 C    3.986 --    43 C    1.389    36 C    1.388     8 C    1.023
    36   6 C    3.988 --    37 C    1.463    35 C    1.388    58 H    0.972
                            42 C    0.103
    37   6 C    3.990 --    36 C    1.463    38 C    1.386    59 H    0.968
                            43 C    0.103
    38   6 C    3.984 --    42 C    1.389    37 C    1.386    39 C    1.009
    39   6 C    3.836 --    41 O    1.690    40 O    1.088    38 C    1.009
    40   8 O    2.097 --    39 C    1.088    60 H    0.838    41 O    0.129
    41   8 O    1.958 --    39 C    1.690    40 O    0.129
    42   6 C    3.991 --    43 C    1.461    38 C    1.389    61 H    0.970
                            36 C    0.103
    43   6 C    3.988 --    42 C    1.461    35 C    1.389    62 H    0.972
                            37 C    0.103
    44   1 H    1.000 --     2 C    0.970
    45   1 H    0.997 --     4 C    0.975
    46   1 H    1.004 --     5 C    0.972
    47   1 H    1.004 --    10 C    0.973
    48   1 H    1.001 --    11 C    0.973
    49   1 H    1.001 --    16 C    0.973
    50   1 H    1.004 --    17 C    0.973
    51   1 H    1.004 --    21 C    0.972
    52   1 H    1.005 --    22 C    0.968
    53   1 H    0.873 --    25 O    0.838
    54   1 H    1.005 --    27 C    0.970
    55   1 H    1.004 --    28 C    0.972
    56   1 H    1.004 --    30 C    0.972
    57   1 H    0.997 --    31 C    0.975
    58   1 H    1.003 --    36 C    0.972
    59   1 H    1.005 --    37 C    0.968
    60   1 H    0.873 --    40 O    0.838
    61   1 H    1.005 --    42 C    0.970
    62   1 H    1.003 --    43 C    0.972
    63  28 Ni   3.012 --    69 N    0.664    95 N    0.664    74 N    0.661
                            96 N    0.661
    64   6 C    3.935 --    65 C    1.364    94 C    1.364   106 H    0.970
    65   6 C    3.922 --    64 C    1.364    69 N    1.213    66 C    1.174
    66   6 C    3.960 --    67 C    1.651    65 C    1.174   107 H    0.975
    67   6 C    3.963 --    66 C    1.651    68 C    1.176   108 H    0.972
    68   6 C    3.919 --    70 C    1.323    69 N    1.221    67 C    1.176
    69   7 N    3.402 --    68 C    1.221    65 C    1.213    63 Ni   0.664
    70   6 C    3.938 --    71 C    1.329    68 C    1.323    97 C    1.023
    71   6 C    3.914 --    70 C    1.329    74 N    1.205    72 C    1.183
    72   6 C    3.958 --    73 C    1.637    71 C    1.183   109 H    0.973
    73   6 C    3.961 --    72 C    1.637    75 C    1.191   110 H    0.973
    74   7 N    3.406 --    75 C    1.239    71 C    1.205    63 Ni   0.661
    75   6 C    3.902 --    76 C    1.262    74 N    1.239    73 C    1.191
    76   6 C    3.945 --    77 C    1.263    75 C    1.262   132 C    1.186
    77   6 C    3.902 --    76 C    1.263    96 N    1.238    78 C    1.191
    78   6 C    3.961 --    79 C    1.636    77 C    1.191   111 H    0.973
    79   6 C    3.959 --    78 C    1.636    80 C    1.184   112 H    0.973
    80   6 C    3.914 --    81 C    1.326    96 N    1.207    79 C    1.184
    81   6 C    3.938 --    80 C    1.326    91 C    1.321    82 C    1.031
    82   6 C    3.987 --    90 C    1.386    83 C    1.384    81 C    1.031
    83   6 C    3.987 --    84 C    1.464    82 C    1.384   113 H    0.972
                            89 C    0.103
    84   6 C    3.990 --    83 C    1.464    85 C    1.385   114 H    0.968
                            90 C    0.103
    85   6 C    3.983 --    89 C    1.389    84 C    1.385    86 C    1.009
    86   6 C    3.836 --    88 O    1.690    87 O    1.088    85 C    1.009
    87   8 O    2.097 --    86 C    1.088   115 H    0.838    88 O    0.129
    88   8 O    1.958 --    86 C    1.690    87 O    0.129
    89   6 C    3.991 --    90 C    1.461    85 C    1.389   116 H    0.970
                            83 C    0.103
    90   6 C    3.988 --    89 C    1.461    82 C    1.386   117 H    0.972
                            84 C    0.103
    91   6 C    3.920 --    81 C    1.321    95 N    1.222    92 C    1.176
    92   6 C    3.963 --    93 C    1.650    91 C    1.176   118 H    0.972
    93   6 C    3.960 --    92 C    1.650    94 C    1.175   119 H    0.975
    94   6 C    3.922 --    64 C    1.364    95 N    1.213    93 C    1.175
    95   7 N    3.402 --    91 C    1.222    94 C    1.213    63 Ni   0.664
    96   7 N    3.406 --    77 C    1.238    80 C    1.207    63 Ni   0.661
    97   6 C    3.986 --   105 C    1.389    98 C    1.388    70 C    1.023
    98   6 C    3.988 --    99 C    1.463    97 C    1.388   120 H    0.972
                           104 C    0.103
    99   6 C    3.990 --    98 C    1.463   100 C    1.386   121 H    0.968
                           105 C    0.103
   100   6 C    3.984 --   104 C    1.389    99 C    1.386   101 C    1.009
   101   6 C    3.836 --   103 O    1.690   102 O    1.088   100 C    1.009
   102   8 O    2.097 --   101 C    1.088   122 H    0.838   103 O    0.129
   103   8 O    1.958 --   101 C    1.690   102 O    0.129
   104   6 C    3.991 --   105 C    1.460   100 C    1.389   123 H    0.970
                            98 C    0.103
   105   6 C    3.988 --   104 C    1.460    97 C    1.389   124 H    0.972
                            99 C    0.103
   106   1 H    1.000 --    64 C    0.970
   107   1 H    0.997 --    66 C    0.975
   108   1 H    1.004 --    67 C    0.972
   109   1 H    1.004 --    72 C    0.973
   110   1 H    1.001 --    73 C    0.973
   111   1 H    1.001 --    78 C    0.973
   112   1 H    1.004 --    79 C    0.973
   113   1 H    1.004 --    83 C    0.972
   114   1 H    1.005 --    84 C    0.968
   115   1 H    0.873 --    87 O    0.838
   116   1 H    1.005 --    89 C    0.970
   117   1 H    1.004 --    90 C    0.972
   118   1 H    1.004 --    92 C    0.972
   119   1 H    0.997 --    93 C    0.975
   120   1 H    1.003 --    98 C    0.972
   121   1 H    1.005 --    99 C    0.968
   122   1 H    0.873 --   102 O    0.838
   123   1 H    1.005 --   104 C    0.970
   124   1 H    1.003 --   105 C    0.972
   125   6 C    3.878 --   126 C    2.446    14 C    1.186   128 C    0.187
   126   6 C    3.938 --   125 C    2.446   127 C    1.341
   127   6 C    3.894 --   128 C    2.341   126 C    1.341   130 C    0.183
   128   6 C    3.928 --   127 C    2.341   129 C    1.366   125 C    0.187
   129   6 C    3.928 --   130 C    2.341   128 C    1.366   132 C    0.187
   130   6 C    3.894 --   129 C    2.341   131 C    1.341   127 C    0.183
   131   6 C    3.938 --   132 C    2.446   130 C    1.341
   132   6 C    3.878 --   131 C    2.446    76 C    1.186   129 C    0.187
 ---------------------------------------------------------------------------

           -------------------------------------------------
          | TOTAL ENERGY             -252.431416817712 Eh   |
          | GRADIENT NORM               0.000667685173 Eh/α |
          | HOMO-LUMO GAP               1.222587037865 eV   |
           -------------------------------------------------

 * finished run on 2022/07/30 at 06:43:07.659
