   * xtb version 6.5.1 (b24c23e) compiled by 'conda@728c89f4b128' on 2022-07-12
          program call               : xtb Zn_NMA_C2_2.xyz --gfn 1 --opt -T 48

   ID    Z sym.   atoms
    1   30 Zn     1, 67
    2    6 C      2-6, 8-12, 14-19, 21-26, 28-32, 34-40, 68-72, 74-78, 80-85,
                  87-92, 94-98, 100-106, 133, 134
    3    7 N      7, 13, 20, 27, 33, 41, 73, 79, 86, 93, 99, 107
    4    1 H      42-66, 108-132
########################################################################
[WARNING] Please study the warnings concerning your input carefully
-1- prog_main_parseArguments: Unknown option '-T' provided
########################################################################

          :  Hamiltonian                  GFN1-xTB          :
 * total energy  :  -197.7107596 Eh     change       -0.2084732E-09 Eh
 * total energy  :  -211.3023497 Eh     change       -0.1359159E+02 Eh
 * total energy  :  -212.3910977 Eh     change       -0.1088748E+01 Eh
 * total energy  :  -213.2713653 Eh     change       -0.8802677E+00 Eh
 * total energy  :  -213.7084337 Eh     change       -0.4370684E+00 Eh
 * total energy  :  -213.9703473 Eh     change       -0.2619136E+00 Eh
 * total energy  :  -214.1398161 Eh     change       -0.1694688E+00 Eh
 * total energy  :  -214.2719566 Eh     change       -0.1321406E+00 Eh
 * total energy  :  -214.3853993 Eh     change       -0.1134427E+00 Eh
 * total energy  :  -214.4767046 Eh     change       -0.9130528E-01 Eh
 * total energy  :  -214.8128950 Eh     change       -0.6843857E-04 Eh
 * total energy  :  -214.8129471 Eh     change       -0.5214438E-04 Eh
 * total energy  :  -214.8129887 Eh     change       -0.4157443E-04 Eh
 * total energy  :  -214.8130252 Eh     change       -0.3651828E-04 Eh
 * total energy  :  -214.8130556 Eh     change       -0.3040772E-04 Eh
 * total energy  :  -214.8130747 Eh     change       -0.1910765E-04 Eh
 * total energy  :  -214.8130873 Eh     change       -0.1256756E-04 Eh
 * total energy  :  -214.8130951 Eh     change       -0.7833723E-05 Eh
 * total energy  :  -214.8130977 Eh     change       -0.2555463E-05 Eh
   *** GEOMETRY OPTIMIZATION CONVERGED AFTER 68 ITERATIONS ***

 final structure:
================
134
 xtb: 6.5.1 (b24c23e)
Zn          18.86011559274688        0.04818556766260       -0.01279342565607
C           15.44639392802038        0.06990074361708       -0.02014323444166
C           16.07081763520621        1.02230896635377        0.77657548634434
C           15.39264161265338        1.96594715412628        1.61950070828709
C           16.34784819882818        2.72008408169665        2.21980555251260
C           17.62167817956416        2.25648281073237        1.73781594644768
N           17.41855185843373        1.21728001676968        0.87713947454249
C           18.86937256071618        2.78437902923581        2.09361572533065
C           18.87740620912019        3.94414803755997        3.01722203703560
C           18.23130267841998        5.13697281192463        2.68125769185644
C           18.22860194267908        6.21000494899097        3.55283160129314
C           18.86347337234437        6.11756680188872        4.79715952741165
N           18.86871137001694        7.23532115250976        5.62151789535021
C           19.04836790698090        7.06496509656331        7.05739933197047
C           19.52189454078587        4.93170850689998        5.13356340776628
C           19.52612553197658        3.86481111566267        4.25090798408195
C           20.10967991845761        2.30568185854260        1.65347219422492
C           21.37727627948717        2.91603858036489        1.93954486849720
C           22.33041674731133        2.15605962771088        1.34160778463141
N           20.31678277518607        1.19911098268527        0.87323678761393
C           21.65961905392139        1.07452013773055        0.68493975568610
C           22.30326701924311        0.03371991971854       -0.01667214398670
C           21.64875733821575       -1.00507371843316       -0.71152283477811
C           22.30969190200834       -2.10047800077546       -1.35490764364884
C           21.34933589150543       -2.86164079401832       -1.93940963124879
C           20.08733641653534       -2.23589425175996       -1.66162363210648
N           20.30491177607431       -1.12032039487275       -0.89699797240928
C           18.84221773093284       -2.70744205487289       -2.09606923367359
C           18.83774049755969       -3.88990771404824       -2.98972073600896
C           19.50543139217718       -3.86177594286883       -4.21555420985496
C           19.49784383758020       -4.95773286993410       -5.06187245798064
C           18.81564857466607       -6.12143402880735       -4.69653202134034
N           18.81878487165482       -7.26750536074500       -5.48065748264904
C           19.02747771416178       -7.15212793431117       -6.91800369725744
C           18.15752404103635       -6.16103060066119       -3.46151666517235
C           18.16496839915140       -5.05989357198189       -2.62608384353513
C           17.60040764644468       -2.15698863867685       -1.75327620697856
C           16.32294063416869       -2.60586141261873       -2.23945000656034
C           15.37524201776642       -1.83231556069224       -1.65196156437016
C           16.06195257934725       -0.89282338768823       -0.81140199289750
N           17.40738498790146       -1.10722597919432       -0.90331156545727
H           14.36067887056433        0.07725617347059       -0.02296956127104
H           14.32199124319547        2.02806670592296        1.73807198976801
H           16.20549706131196        3.51358545681260        2.93603310734465
H           17.74218944670917        5.22681809183572        1.71736301827892
H           17.73089681710206        7.13334476902527        3.27522816746945
H           18.11733957548085        7.87950944490113        5.40464897506174
H           20.06727882757358        6.73974026470154        7.27077848231610
H           18.34284097776467        6.33358491886500        7.46836635323376
H           18.88409021021225        8.03127756804431        7.53431462489294
H           20.03220842062353        4.83377756035095        6.08394481205416
H           20.02437965759642        2.94311663626733        4.53177502040833
H           21.51818396979861        3.82161758244606        2.50744714372053
H           23.39509513394103        2.32063578880503        1.33099105962835
H           23.37292689443486       -2.27388076279043       -1.34325648976237
H           21.48276348551173       -3.77729748656600       -2.49264933104905
H           20.02269155588624       -2.95803946298308       -4.51945983245183
H           20.02510762571081       -4.90023917646845       -6.00629385260188
H           18.05526505011525       -7.89384763561993       -5.25420811319691
H           18.34206017377383       -6.42466607684976       -7.36811956434172
H           18.85546679560932       -8.13229197023391       -7.36290390423843
H           20.05558807481824       -6.85149631737548       -7.12367840545897
H           17.63942537132769       -7.06607059210723       -3.16187165791679
H           17.65969467731196       -5.10967555647470       -1.66763485374444
H           16.17353752160074       -3.40243646576045       -2.95081641124139
H           14.30455013868947       -1.87955268994867       -1.77689464320455
Zn          29.78523947207219        0.00190911083954       -0.04980933098640
C           33.19897287681084        0.00420712529225       -0.07219439182726
C           32.57462016561617       -0.98107761175092       -0.82793458293670
C           33.25283954079882       -2.00957065287855       -1.56490907465854
C           32.29767758531442       -2.75980538062600       -2.17015006770102
C           31.02384102843441       -2.18817599769264       -1.82307802559472
N           31.22690629952015       -1.12160466179811       -0.99654714925235
C           29.77616951105585       -2.65049833778726       -2.26074889585576
C           29.76803841671413       -3.80488907076990       -3.19105794909149
C           30.41402643266215       -3.73743881788172       -4.42850639065334
C           30.41644518288471       -4.82219929600567       -5.28545330841462
C           29.78140968047342       -6.01623618908337       -4.92360375394776
N           29.77600083138990       -7.06479700659347       -5.83445496366031
C           29.59717497560916       -8.42880610222504       -5.35421251048556
C           29.12303273519123       -6.08559622499695       -3.69289612596888
C           29.11910609006174       -4.99139299912019       -2.84434347352757
C           28.53583965060258       -2.11661407706459       -1.88955002365361
C           27.26827139773221       -2.52903601187295       -2.42279445863904
C           26.31508143639206       -1.77985144475556       -1.81147603838385
N           28.32866119191584       -1.11394185498475       -0.97967333756042
C           26.98581411768889       -0.90305807736689       -0.89919998424155
C           26.34205487032379        0.00875689531816       -0.03666187866767
C           26.99647307489345        0.91337166563494        0.82571490478327
C           26.33551737941672        1.78015431575686        1.75443708888902
C           27.29584269442078        2.51682556382053        2.36958022228254
C           28.55782815715347        2.10942432602507        1.81932299744023
N           28.34030378234149        1.11966235479118        0.89762211717230
C           29.80291608626507        2.63649428144369        2.18451003164145
C           29.80741749632174        3.76661180533804        3.14351559031491
C           29.13988663882775        4.95687442537274        2.84868778838333
C           29.14766415345150        6.02187049535114        3.73366338163211
C           29.82983954327172        5.91903547083731        4.94903436307766
N           29.82691491558616        6.93424139501968        5.89649172686125
C           29.61833556050248        8.31185749434158        5.47048553290472
C           30.48775780322100        4.72228287127717        5.25706847951651
C           30.48016599916787        3.66681089811405        4.36465149817510
C           31.04475290178865        2.18188517393351        1.72215601812177
C           32.32219581214021        2.75428194042983        2.05423894217005
C           33.26996304204744        2.01201049910398        1.42780374278258
C           32.58332561600160        0.98660812101043        0.69443217417807
N           31.23786758414959        1.12319685262545        0.88335132199447
H           34.28468941096060        0.00526207157241       -0.07973698802602
H           34.32348325445542       -2.13894901191054       -1.59945280140537
H           32.44004706910708       -3.63184093458201       -2.78835410288293
H           30.90329558512895       -2.81648493429198       -4.72658963181912
H           30.91407197792095       -4.75289081105462       -6.24716848728165
H           30.52759750022280       -6.99374828777861       -6.51026736139448
H           28.57858451907614       -8.56627730392089       -4.98945968552771
H           30.30339730585473       -8.66964399720938       -4.55119180220301
H           29.76107647354358       -9.10538383373803       -6.19301254790522
H           28.61250589476717       -6.99156203765520       -3.38988558154405
H           28.62086903520781       -5.06421196738574       -1.88355269614682
H           27.12740172751180       -3.28072352474040       -3.18276834335521
H           25.25039541505729       -1.80557651477039       -1.97430461872665
H           25.27231046380050        1.80632335209537        1.92644396678668
H           27.16242385155570        3.25656623295753        3.14242546381675
H           28.62266874374340        5.05643989442244        1.90040566811999
H           28.62059357780623        6.93112755407530        3.47154708219180
H           30.59043789262893        6.84972351532847        6.55712015570665
H           30.30357216564421        8.59238108475369        4.66218216431003
H           29.79069772474968        8.95977586357507        6.32998647991972
H           28.59015327261993        8.44718744646167        5.13252118021968
H           31.00579238908936        4.62715349245309        6.20570205207099
H           30.98524541594340        2.74218469711236        4.62228782032819
H           32.47153604757222        3.62243286124902        2.67625719299506
H           34.34065905933511        2.14418140660242        1.44681517084797
C           23.71351226330383        0.02648787528581       -0.02117529358829
C           24.93180949542429        0.01572004475306       -0.03211735476187

          :  Hamiltonian                  GFN1-xTB          :
         :: total energy            -214.813097700858 Eh    ::
         :: gradient norm              0.000299465070 Eh/a0 ::
         :: HOMO-LUMO gap              1.021171267924 eV    ::
         :: SCC energy              -218.138059302897 Eh    ::
         :: repulsion energy           3.440889161550 Eh    ::

    * Orbital Energies and Occupations

         #    Occupation            Energy/Eh            Energy/eV
      -------------------------------------------------------------
         1        2.0000           -0.7741006             -21.0643
       ...           ...                  ...                  ...
       185        2.0000           -0.4086267             -11.1193
       186        2.0000           -0.4086015             -11.1186
       187        2.0000           -0.4083547             -11.1119
       188        2.0000           -0.4083504             -11.1118
       189        2.0000           -0.4073029             -11.0833
       190        2.0000           -0.3914941             -10.6531
       191        2.0000           -0.3887199             -10.5776
       192        2.0000           -0.3868221             -10.5260
       193        2.0000           -0.3868126             -10.5257
       194        2.0000           -0.3811237             -10.3709
       195        2.0000           -0.3811111             -10.3706
       196        2.0000           -0.3744222             -10.1885
       197        2.0000           -0.3616608              -9.8413 (HOMO)
       198                         -0.3241335              -8.8201 (LUMO)
       199                         -0.3130758              -8.5192
       200                         -0.3130702              -8.5191
       201                         -0.3069990              -8.3539
       202                         -0.2822642              -7.6808
       203                         -0.2729618              -7.4277
       204                         -0.2513584              -6.8398
       205                         -0.2513542              -6.8397
       206                         -0.2513296              -6.8390
       207                         -0.2513250              -6.8389
       208                         -0.2396494              -6.5212
       ...                                ...                  ...
       436                          1.3463260              36.6354
      -------------------------------------------------------------
                  HL-Gap            0.0375274 Eh            1.0212 eV

Wiberg/Mayer (AO) data.
largest (>0.10) Wiberg bond orders for each atom

     #   Z sym  total        # sym  WBO       # sym  WBO       # sym  WBO
 ---------------------------------------------------------------------------
     1  30 Zn   2.002 --     7 N    0.460    41 N    0.459    20 N    0.458
                            27 N    0.458
     2   6 C    3.924 --     3 C    1.356    40 C    1.356    42 H    0.972
     3   6 C    3.923 --     2 C    1.356     7 N    1.233     4 C    1.173
     4   6 C    3.959 --     5 C    1.654     3 C    1.173    43 H    0.976
     5   6 C    3.963 --     4 C    1.654     6 C    1.175    44 H    0.973
     6   6 C    3.917 --     8 C    1.312     7 N    1.243     5 C    1.175
     7   7 N    3.291 --     6 C    1.243     3 C    1.233     1 Zn   0.460
     8   6 C    3.933 --    17 C    1.318     6 C    1.312     9 C    1.034
     9   6 C    3.988 --    16 C    1.385    10 C    1.375     8 C    1.034
    10   6 C    3.987 --    11 C    1.474     9 C    1.375    45 H    0.973
    11   6 C    3.989 --    10 C    1.474    12 C    1.347    46 H    0.972
                            16 C    0.100
    12   6 C    3.952 --    15 C    1.356    11 C    1.347    13 N    1.104
    13   7 N    3.174 --    12 C    1.104    14 C    0.972    47 H    0.932
    14   6 C    3.969 --    50 H    0.990    48 H    0.986    49 H    0.984
                            13 N    0.972
    15   6 C    3.990 --    16 C    1.463    12 C    1.356    51 H    0.970
    16   6 C    3.987 --    15 C    1.463     9 C    1.385    52 H    0.973
                            11 C    0.100
    17   6 C    3.913 --     8 C    1.318    20 N    1.227    18 C    1.183
    18   6 C    3.960 --    19 C    1.640    17 C    1.183    53 H    0.973
    19   6 C    3.962 --    18 C    1.640    21 C    1.190    54 H    0.967
    20   7 N    3.296 --    21 C    1.259    17 C    1.227     1 Zn   0.458
    21   6 C    3.907 --    20 N    1.259    22 C    1.256    19 C    1.190
    22   6 C    3.937 --    21 C    1.256    23 C    1.255   133 C    1.184
    23   6 C    3.907 --    27 N    1.260    22 C    1.255    24 C    1.190
    24   6 C    3.962 --    25 C    1.640    23 C    1.190    55 H    0.967
    25   6 C    3.960 --    24 C    1.640    26 C    1.183    56 H    0.973
    26   6 C    3.912 --    28 C    1.318    27 N    1.226    25 C    1.183
    27   7 N    3.296 --    23 C    1.260    26 C    1.226     1 Zn   0.458
    28   6 C    3.933 --    26 C    1.318    37 C    1.311    29 C    1.036
    29   6 C    3.988 --    30 C    1.384    36 C    1.374    28 C    1.036
    30   6 C    3.987 --    31 C    1.463    29 C    1.384    57 H    0.973
                            35 C    0.100
    31   6 C    3.990 --    30 C    1.463    32 C    1.355    58 H    0.970
    32   6 C    3.952 --    31 C    1.355    35 C    1.347    33 N    1.105
    33   7 N    3.175 --    32 C    1.105    34 C    0.972    59 H    0.932
    34   6 C    3.968 --    61 H    0.990    62 H    0.986    60 H    0.984
                            33 N    0.972
    35   6 C    3.989 --    36 C    1.475    32 C    1.347    63 H    0.972
                            30 C    0.100
    36   6 C    3.987 --    35 C    1.475    29 C    1.374    64 H    0.973
    37   6 C    3.917 --    28 C    1.311    41 N    1.244    38 C    1.175
    38   6 C    3.963 --    39 C    1.654    37 C    1.175    65 H    0.973
    39   6 C    3.959 --    38 C    1.654    40 C    1.174    66 H    0.976
    40   6 C    3.923 --     2 C    1.356    41 N    1.233    39 C    1.174
    41   7 N    3.291 --    37 C    1.244    40 C    1.233     1 Zn   0.459
    42   1 H    1.002 --     2 C    0.972
    43   1 H    0.999 --     4 C    0.976
    44   1 H    1.006 --     5 C    0.973
    45   1 H    1.005 --    10 C    0.973
    46   1 H    0.999 --    11 C    0.972
    47   1 H    0.967 --    13 N    0.932
    48   1 H    1.012 --    14 C    0.986
    49   1 H    1.004 --    14 C    0.984
    50   1 H    1.007 --    14 C    0.990
    51   1 H    1.001 --    15 C    0.970
    52   1 H    1.006 --    16 C    0.973
    53   1 H    1.005 --    18 C    0.973
    54   1 H    1.007 --    19 C    0.967
    55   1 H    1.008 --    24 C    0.967
    56   1 H    1.005 --    25 C    0.973
    57   1 H    1.006 --    30 C    0.973
    58   1 H    1.001 --    31 C    0.970
    59   1 H    0.967 --    33 N    0.932
    60   1 H    1.004 --    34 C    0.984
    61   1 H    1.007 --    34 C    0.990
    62   1 H    1.012 --    34 C    0.986
    63   1 H    0.999 --    35 C    0.972
    64   1 H    1.006 --    36 C    0.973
    65   1 H    1.006 --    38 C    0.973
    66   1 H    0.999 --    39 C    0.976
    67  30 Zn   2.002 --    73 N    0.460   107 N    0.459    86 N    0.458
                            93 N    0.458
    68   6 C    3.924 --    69 C    1.356   106 C    1.356   108 H    0.972
    69   6 C    3.923 --    68 C    1.356    73 N    1.233    70 C    1.173
    70   6 C    3.959 --    71 C    1.654    69 C    1.173   109 H    0.976
    71   6 C    3.963 --    70 C    1.654    72 C    1.175   110 H    0.973
    72   6 C    3.917 --    74 C    1.312    73 N    1.243    71 C    1.175
    73   7 N    3.291 --    72 C    1.243    69 C    1.233    67 Zn   0.460
    74   6 C    3.933 --    83 C    1.318    72 C    1.312    75 C    1.034
    75   6 C    3.988 --    82 C    1.385    76 C    1.375    74 C    1.034
    76   6 C    3.987 --    77 C    1.474    75 C    1.375   111 H    0.973
    77   6 C    3.989 --    76 C    1.474    78 C    1.347   112 H    0.972
                            82 C    0.100
    78   6 C    3.952 --    81 C    1.356    77 C    1.347    79 N    1.104
    79   7 N    3.174 --    78 C    1.104    80 C    0.972   113 H    0.932
    80   6 C    3.969 --   116 H    0.990   114 H    0.986   115 H    0.984
                            79 N    0.972
    81   6 C    3.990 --    82 C    1.463    78 C    1.356   117 H    0.970
    82   6 C    3.987 --    81 C    1.463    75 C    1.385   118 H    0.973
                            77 C    0.100
    83   6 C    3.913 --    74 C    1.318    86 N    1.227    84 C    1.183
    84   6 C    3.960 --    85 C    1.640    83 C    1.183   119 H    0.973
    85   6 C    3.962 --    84 C    1.640    87 C    1.190   120 H    0.967
    86   7 N    3.296 --    87 C    1.259    83 C    1.227    67 Zn   0.458
    87   6 C    3.907 --    86 N    1.259    88 C    1.256    85 C    1.190
    88   6 C    3.937 --    87 C    1.256    89 C    1.255   134 C    1.184
    89   6 C    3.907 --    93 N    1.260    88 C    1.255    90 C    1.190
    90   6 C    3.962 --    91 C    1.640    89 C    1.190   121 H    0.967
    91   6 C    3.960 --    90 C    1.640    92 C    1.183   122 H    0.973
    92   6 C    3.912 --    94 C    1.318    93 N    1.226    91 C    1.183
    93   7 N    3.296 --    89 C    1.260    92 C    1.226    67 Zn   0.458
    94   6 C    3.933 --    92 C    1.318   103 C    1.311    95 C    1.036
    95   6 C    3.988 --    96 C    1.384   102 C    1.374    94 C    1.036
    96   6 C    3.987 --    97 C    1.463    95 C    1.384   123 H    0.973
                           101 C    0.100
    97   6 C    3.990 --    96 C    1.463    98 C    1.355   124 H    0.970
    98   6 C    3.952 --    97 C    1.355   101 C    1.347    99 N    1.105
    99   7 N    3.175 --    98 C    1.105   100 C    0.972   125 H    0.932
   100   6 C    3.968 --   127 H    0.990   128 H    0.986   126 H    0.984
                            99 N    0.972
   101   6 C    3.989 --   102 C    1.475    98 C    1.347   129 H    0.972
                            96 C    0.100
   102   6 C    3.987 --   101 C    1.475    95 C    1.374   130 H    0.973
   103   6 C    3.917 --    94 C    1.311   107 N    1.244   104 C    1.175
   104   6 C    3.963 --   105 C    1.654   103 C    1.175   131 H    0.973
   105   6 C    3.959 --   104 C    1.654   106 C    1.174   132 H    0.976
   106   6 C    3.923 --    68 C    1.356   107 N    1.233   105 C    1.174
   107   7 N    3.291 --   103 C    1.244   106 C    1.233    67 Zn   0.459
   108   1 H    1.002 --    68 C    0.972
   109   1 H    0.999 --    70 C    0.976
   110   1 H    1.006 --    71 C    0.973
   111   1 H    1.005 --    76 C    0.973
   112   1 H    0.999 --    77 C    0.972
   113   1 H    0.967 --    79 N    0.932
   114   1 H    1.012 --    80 C    0.986
   115   1 H    1.004 --    80 C    0.984
   116   1 H    1.007 --    80 C    0.990
   117   1 H    1.001 --    81 C    0.970
   118   1 H    1.006 --    82 C    0.973
   119   1 H    1.005 --    84 C    0.973
   120   1 H    1.007 --    85 C    0.967
   121   1 H    1.008 --    90 C    0.967
   122   1 H    1.005 --    91 C    0.973
   123   1 H    1.006 --    96 C    0.973
   124   1 H    1.001 --    97 C    0.970
   125   1 H    0.967 --    99 N    0.932
   126   1 H    1.004 --   100 C    0.984
   127   1 H    1.007 --   100 C    0.990
   128   1 H    1.012 --   100 C    0.986
   129   1 H    0.999 --   101 C    0.972
   130   1 H    1.006 --   102 C    0.973
   131   1 H    1.006 --   104 C    0.973
   132   1 H    0.999 --   105 C    0.976
   133   6 C    3.934 --   134 C    2.572    22 C    1.184
   134   6 C    3.934 --   133 C    2.572    88 C    1.184
 ---------------------------------------------------------------------------

           -------------------------------------------------
          | TOTAL ENERGY             -214.813097700858 Eh   |
          | GRADIENT NORM               0.000299465070 Eh/α |
          | HOMO-LUMO GAP               1.021171267924 eV   |
           -------------------------------------------------

 * finished run on 2022/07/30 at 08:41:48.527
