   * xtb version 6.5.1 (b24c23e) compiled by 'conda@728c89f4b128' on 2022-07-12
          program call               : xtb Ni_Py_C4_4.xyz --gfn 1 --opt -T 48

   ID    Z sym.   atoms
    1   28 Ni     1, 55, 121, 174
    2    6 C      2-6, 8-11, 13-17, 19-24, 26-29, 31-36, 56-60, 62-65, 67-71,
                  73-78, 80-83, 85-90, 109-120, 122-126, 128-131, 133-137,
                  139-144, 146-149, 151-156, 175-179, 181-184, 186-190,
                  192-197, 199-202, 204-209
    3    7 N      7, 12, 18, 25, 30, 37, 61, 66, 72, 79, 84, 91, 127, 132,
                  138, 145, 150, 157, 180, 185, 191, 198, 203, 210
    4    1 H      38-54, 92-108, 158-173, 211-226

          :  Hamiltonian                  GFN1-xTB          :
 * total energy  :  -406.3005262 Eh     change        0.1266341E-07 Eh
 * total energy  :  -406.7728838 Eh     change       -0.4723576E+00 Eh
 * total energy  :  -406.9596139 Eh     change       -0.1867301E+00 Eh
 * total energy  :  -407.0398917 Eh     change       -0.8027782E-01 Eh
 * total energy  :  -407.1038463 Eh     change       -0.6395462E-01 Eh
 * total energy  :  -407.1657120 Eh     change       -0.6186569E-01 Eh
 * total energy  :  -407.2123917 Eh     change       -0.4667971E-01 Eh
 * total energy  :  -407.2409038 Eh     change       -0.2851201E-01 Eh
 * total energy  :  -407.2632876 Eh     change       -0.2238384E-01 Eh
 * total energy  :  -407.2808277 Eh     change       -0.1754010E-01 Eh
 * total energy  :  -407.3970615 Eh     change       -0.1314207E-04 Eh
 * total energy  :  -407.3970765 Eh     change       -0.1505972E-04 Eh
 * total energy  :  -407.3970938 Eh     change       -0.1730389E-04 Eh
 * total energy  :  -407.3971143 Eh     change       -0.2043785E-04 Eh
 * total energy  :  -407.3971329 Eh     change       -0.1865360E-04 Eh
 * total energy  :  -407.3971473 Eh     change       -0.1441620E-04 Eh
 * total energy  :  -407.3971563 Eh     change       -0.8976179E-05 Eh
 * total energy  :  -407.3971642 Eh     change       -0.7871563E-05 Eh
 * total energy  :  -407.3971673 Eh     change       -0.3159792E-05 Eh
   *** GEOMETRY OPTIMIZATION CONVERGED AFTER 68 ITERATIONS ***

 final structure:
================
226
 xtb: 6.5.1 (b24c23e)
Ni          37.12364932933817       -0.01832173701090       -0.02080443681651
C           33.73079575231319       -0.05045446345252       -0.03556987750448
C           34.38897472865290       -1.26228857742834       -0.01530945174564
C           33.71602490707760       -2.52520628996221        0.00692712894551
C           34.67422452359508       -3.47343318834234        0.12467007299427
C           35.93330017667490       -2.78865401007391        0.16751961728623
N           35.74855753422973       -1.43261424489347        0.06281553905761
C           37.14950617219155       -3.42105921194527        0.38822240981859
C           37.16226894613423       -4.89282732992842        0.56775351765052
C           37.52047485557798       -5.46947209424709        1.78515258821368
C           37.51711190132870       -6.85043715216769        1.90449768773382
N           37.19031531692275       -7.66288024569322        0.90475229850351
C           36.84955318922516       -7.12045530739949       -0.25969329917213
C           36.81813844113889       -5.75146301343919       -0.47490565272443
C           38.35487778070513       -2.73551148456678        0.44816344122380
C           39.62103565666505       -3.37286768560987        0.64977871194152
C           40.56650177699340       -2.41030041106365        0.53385905016243
N           38.52430363019629       -1.38786031923170        0.22349141574048
C           39.87738050244374       -1.19021471303615        0.25589971411240
C           40.53530824899423        0.00964625126828       -0.02411269685650
C           39.85600623246329        1.19976155907704       -0.29357932892625
C           40.52151658153743        2.42678617012580       -0.59688854676227
C           39.56031059754694        3.37584255263445       -0.69606388825989
C           38.30975470244610        2.72515708706768       -0.44626215396104
N           38.50105291087477        1.37873490976011       -0.23415224547000
C           37.09110383641877        3.38868035854283       -0.40047957277379
C           37.07902014370600        4.86132818207992       -0.56158969449682
C           36.42113636694057        5.46713938280435       -1.63125086864688
C           36.43980358684371        6.84868990200626       -1.74062254808251
N           37.05553129558243        7.63628656832427       -0.86481696088220
C           37.68319502136013        7.06674204443470        0.15898833921843
C           37.72531595802210        5.69466287244657        0.35046232263594
C           35.88322543413433        2.72873464076355       -0.21541074792975
C           34.61465893239450        3.39176103868319       -0.13178056727410
C           33.67275214598588        2.42466796325431       -0.03635424183373
C           34.36683646446232        1.17319318996910       -0.04878472907003
N           35.72311322592161        1.36853235320849       -0.12767090719926
H           32.64708889962020       -0.06026204627243       -0.03489305972351
H           32.64617636190336       -2.64827268650931       -0.04887903844410
H           34.55245629152840       -4.54222125007781        0.19218315197997
H           37.78492285471242       -4.84521612534793        2.63028597131293
H           37.78873777964095       -7.32367475933375        2.84354865690471
H           36.59026703139146       -7.81038883168978       -1.05739947651084
H           36.54409832588626       -5.35356510740410       -1.44467506387844
H           39.75927382448011       -4.42474254002796        0.83892154012496
H           41.63742480256061       -2.50421897694200        0.61391221035369
H           41.58801622859299        2.53214992252621       -0.71362136790103
H           39.67657278656247        4.42301988255472       -0.92252501170067
H           35.91537156813414        4.86383631991451       -2.37567356771984
H           35.93851605221477        7.34339696550504       -2.56738762567242
H           38.17488554576772        7.73670735775127        0.85824681918145
H           38.24084250113356        5.27486200674546        1.20600234761815
H           34.47679372685526        4.46068545444544       -0.14263810182048
H           32.60201136483663        2.52863311893858        0.03802795847572
Ni          77.41990902735004        0.04171740010248       -0.02225612392251
C           80.81694168411811        0.05875298360066       -0.04378758048388
C           80.16339375660756        1.23438544451386       -0.34717071390844
C           80.84383246348611        2.45550251919739       -0.65390699169689
C           79.88858178826628        3.39608292250708       -0.83708253671893
C           78.62457092772507        2.74553320295859       -0.65059979186462
N           78.80324042000939        1.41716213079396       -0.35505742573195
C           77.40405115768439        3.40443974994024       -0.70415236469814
C           77.39640340941020        4.86088332516766       -0.98335444299144
C           76.98363587870274        5.77683796528614       -0.01714962807603
C           76.99937763764390        7.12944462445996       -0.31936729241452
N           77.38669747326560        7.60314328965303       -1.49918619771832
C           77.77771055102178        6.73556182772820       -2.42687395007295
C           77.80304481972543        5.36551773219556       -2.21722056734377
C           76.19065920693902        2.76220037392760       -0.50311762090993
C           74.92348753810926        3.42234073396088       -0.59237347822242
C           73.97507344491491        2.47480814926839       -0.40187374792972
N           76.01910800662280        1.41790451110593       -0.26001857610177
C           74.66429628619757        1.23960511063083       -0.20222220981634
C           74.00341188966252        0.02475879883570       -0.00605494253821
C           74.67846268210859       -1.18258427419150        0.18776774989019
C           74.00437799174431       -2.42999103128640        0.36048987442378
C           74.96376208592105       -3.36720724432634        0.54776051339181
C           76.22190262354822       -2.68591823973493        0.49882074036842
N           76.03506774925584       -1.34390237057518        0.25462637664554
C           77.44450133783674       -3.31783898455664        0.67835310417376
C           77.45606542481255       -4.76978506416105        0.97524283120972
C           78.03766336518208       -5.68198793625788        0.09579318059210
C           78.02346760052744       -7.03070096575053        0.41487912653858
N           77.48190417996638       -7.50481483755094        1.53217622595662
C           76.92734500111582       -6.64140070044176        2.37680465010222
C           76.88748003448067       -5.27571036216498        2.14325716295993
C           78.65820944513440       -2.64936336193425        0.58914555853967
C           79.92924735083473       -3.27480843699120        0.81083411179093
C           80.87307042813663       -2.32731819613399        0.60505299642668
C           80.17799350065104       -1.12265245504373        0.26803413066380
N           78.82007211253057       -1.32230888764020        0.27886422967984
H           81.90068485781806        0.06508727242436       -0.04488678411882
H           81.91570873256131        2.56048180965109       -0.70759869614904
H           80.01437730346132        4.44140871049634       -1.06763078690747
H           76.66786242450934        5.43541217443218        0.96142331791156
H           76.68777382686297        7.86326353924469        0.41815665501961
H           78.08521842418853        7.15343349477342       -3.38101019297746
H           78.12142984318706        4.69435460675120       -3.00589028687832
H           74.78826713106928        4.47330170449216       -0.78873682437239
H           72.90268704428581        2.58469651858809       -0.40093930866304
H           72.93411724644957       -2.55635480136378        0.33454768899173
H           74.84129962989870       -4.42720952188520        0.69845268310818
H           78.48178987487381       -5.34134766706715       -0.83192347223574
H           78.46652206733657       -7.76097148338281       -0.25591980361206
H           76.49522667189606       -7.05921044437780        3.28138746894595
H           76.43362348985582       -4.60766181343284        2.86549650859179
H           80.06697837375626       -4.30551614256332        1.09425853477814
H           81.94565312443234       -2.41472145161621        0.67384365735044
C           43.16298967660506        0.02603425545271       -0.03178020853736
C           41.94205806336699        0.01939154412296       -0.03252257673085
C           44.51408894958345        0.02793977801856       -0.03389678479783
C           45.73516042661612        0.03186117679324       -0.03414796220329
C           56.60214462697066        0.02135167401475       -0.02208081248525
C           55.38062031065745        0.02185784945786       -0.02629173702073
C           57.95211029381531        0.01935962698279       -0.02003276486963
C           59.17365895886088        0.01526274307081       -0.01816492458384
C           70.02547392719477        0.00734824382718       -0.00134187046168
C           68.80411063709538        0.00488328842789       -0.00254482337449
C           71.37597433450479        0.01245307543207       -0.00216499403899
C           72.59719231495463        0.01709214641691       -0.00490722433511
Ni          50.55851811718870        0.01834834184102       -0.03932841311623
C           47.14139670615403        0.02894390543662       -0.03509891391918
C           47.81064296495462       -0.75929205554100        0.90418146266837
C           47.13554144123207       -1.53573824881636        1.89445650628891
C           48.08868575195536       -2.23592948435573        2.55525094804290
C           49.34265873064944       -1.88990697447300        1.95882194340760
N           49.16334676704472       -0.95243278939831        0.96739968201414
C           50.55350999552807       -2.46698340813737        2.31761061886459
C           50.54866972038891       -3.54754288979195        3.33099365196247
C           49.87130009578685       -4.74529777025465        3.10577054491725
C           49.89672711907578       -5.72929847035886        4.08146938334478
N           50.53684685488480       -5.58639162162890        5.23744619986325
C           51.18248977527141       -4.44643864817755        5.46117279277512
C           51.21961596478881       -3.40695565508091        4.54505531231297
C           51.76680465570092       -2.07626556523692        1.76806190986055
C           53.02049548008600       -2.68594250386292        2.09137216902219
C           53.97652000805149       -1.98370155885890        1.43695966276409
N           51.94994005169795       -1.03441071901772        0.88689483654221
C           53.30339065393074       -0.95673931519078        0.70790844501787
C           53.97561533957521        0.02107305878884       -0.03042663262714
C           53.30621179236497        0.99450841388961       -0.77691248817964
C           53.98159063261000        2.01563329693896       -1.51222046563223
C           53.02834612919919        2.70649161925414       -2.18266375085325
C           51.77407266775219        2.09813725562541       -1.85939627947258
N           51.95380280651860        1.06659352843185       -0.96576538511309
C           50.56291149932891        2.48405714167012       -2.41652490977457
C           50.56363244056063        3.55044748233121       -3.44531687653946
C           51.21860131075905        3.38043767897982       -4.66413950340576
C           51.18596631483629        4.40566608618671       -5.59639242998362
N           50.56079676068418        5.55890789827891       -5.38302048071081
C           49.93734515471848        5.73022587926976       -4.22182477866606
C           49.90775564311922        4.76184904373824       -3.23069113532361
C           49.34956291754764        1.91791051856201       -2.05000227450195
C           48.09594465112675        2.27022164859350       -2.64351526392091
C           47.13971187712852        1.58515062256584       -1.97151096052788
C           47.81276666314260        0.81004825132475       -0.97871407221321
N           49.16668143612366        0.99101253681076       -1.04923809491898
H           46.06902071374056       -1.53468595923507        2.05129602661753
H           47.96425398065801       -2.92234244331127        3.37664920450801
H           49.34487276140399       -4.90955316867248        2.17312411239415
H           49.38063498293477       -6.67239900575224        3.92739535748842
H           51.69342204053594       -4.35909904286194        6.41555789745065
H           51.74974021409570       -2.49046362361845        4.77511335103661
H           53.14307089275727       -3.54248811472963        2.73373062191921
H           55.04379942311999       -2.13536219736402        1.43739872683696
H           55.04842960174461        2.17033902522706       -1.50676531571478
H           53.15229189625162        3.55487729327913       -2.83557226250774
H           51.73280709079023        2.45267193075370       -4.88491683980474
H           51.68311951829848        4.29512657292438       -6.55562792645772
H           49.43865932115907        6.68398677893218       -4.07634932428632
H           49.39456731183660        4.94826647923975       -2.29485386083233
H           47.97413205102917        2.95134819473319       -3.46970004983852
H           46.07236989002769        1.59298844098422       -2.12248541603090
Ni          63.98858379830465        0.00119561919870       -0.01925752637074
C           60.57831117553873        0.01085498069664       -0.01882006025662
C           61.24938564222045       -0.74017098341556        0.95073100478380
C           60.58228484852771       -1.47321077043377        1.97867855309653
C           61.53577603808023       -2.17828715971942        2.63484433226901
C           62.78166881350816       -1.88110420935024        1.99651871241073
N           62.59882289575309       -0.95750817617187        0.99243360187895
C           63.98326645136737       -2.50558192420793        2.30501175740655
C           63.98220072736622       -3.58713469977640        3.31600820591786
C           63.22554264115433       -4.74495705670628        3.13885123623184
C           63.25832476648807       -5.72906637510758        4.11423574336366
N           63.97845080304193       -5.62300007972670        5.22629752710638
C           64.70078486652694       -4.52155755512039        5.40406512121199
C           64.73731720826351       -3.48575218690418        4.48399604824267
C           65.18675344194097       -2.15471541629726        1.70650110952825
C           66.43044669204932       -2.81685225588016        1.95675563170425
C           67.38720641124266       -2.11045998896226        1.30662767161597
N           65.37378822480345       -1.08364862686994        0.86290320307239
C           66.72429031903002       -1.02721194988030        0.65390667909975
C           67.39899096912961        0.00325739221269       -0.00708792464820
C           66.72771514109101        1.03000464747460       -0.67733525022503
C           67.39436948726545        2.10760379182158       -1.33583248029109
C           66.44217446412652        2.80429604880494       -2.00284848232940
C           65.19728853406986        2.14417389011512       -1.75369188106108
N           65.37886940117980        1.08220603529381       -0.89772609188174
C           63.99711382164463        2.49198934712675       -2.36018049028982
C           64.00523347800912        3.56088933197191       -3.38499928285670
C           64.74909078894851        3.42995814526753       -4.55712467425405
C           64.72259352693411        4.45309139361075       -5.49156570053545
N           64.02176749826367        5.56973973580277       -5.32284191468095
C           63.31353297101870        5.70424485738603       -4.20629650759923
C           63.27070562765489        4.73400501020155       -3.21738261236605
C           62.79185153207185        1.87795317536502       -2.04657456630031
C           61.54707902179574        2.18174353068882       -2.68388466491783
C           60.58930722586651        1.48883982538172       -2.02105763423477
C           61.25287204257199        0.75565476982183       -0.99083420207936
N           62.60372886367389        0.96233750988739       -1.03604381055167
H           59.52014782463995       -1.44406992404593        2.16088347947957
H           61.41591304939633       -2.83976657972463        3.47717229465156
H           62.63254798907887       -4.87984724253790        2.24213134987987
H           62.68100071823118       -6.64145769765130        3.99689244438304
H           65.27633501088445       -4.46346000145069        6.32326106514729
H           65.33164999802865       -2.60053992089371        4.67669526839816
H           66.54666329649886       -3.70768750031681        2.55205134118430
H           68.44913686464578       -2.29182788576528        1.26665736214005
H           68.45567046963862        2.29101058850294       -1.28930694692308
H           66.56156841765480        3.68751305830882       -2.60880543171866
H           65.32708652509969        2.53217859066645       -4.74111412592885
H           65.28873063818067        4.37188248612136       -6.41482287145231
H           62.75438556931303        6.62880593140702       -4.09654935514404
H           62.68724800934364        4.89130045655915       -2.31808485199359
H           61.43109245336836        2.84028303273836       -3.52906824842162
H           59.52649980271337        1.46761368758353       -2.20041225497784

          :  Hamiltonian                  GFN1-xTB          :
         :: total energy            -407.397167340910 Eh    ::
         :: gradient norm              0.000659835672 Eh/a0 ::
         :: HOMO-LUMO gap              0.989265859644 eV    ::
         :: SCC energy              -413.847475883433 Eh    ::
         :: repulsion energy           6.661298640308 Eh    ::

    * Orbital Energies and Occupations

         #    Occupation            Energy/Eh            Energy/eV
      -------------------------------------------------------------
         1        2.0000           -0.7896336             -21.4870
       ...           ...                  ...                  ...
       365        2.0000           -0.4045951             -11.0096
       366        2.0000           -0.4044773             -11.0064
       367        2.0000           -0.4042971             -11.0015
       368        2.0000           -0.4042639             -11.0006
       369        2.0000           -0.4042269             -10.9996
       370        2.0000           -0.4041505             -10.9975
       371        2.0000           -0.4032665             -10.9734
       372        2.0000           -0.4031975             -10.9716
       373        2.0000           -0.4031587             -10.9705
       374        2.0000           -0.4030875             -10.9686
       375        2.0000           -0.3997461             -10.8776
       376        2.0000           -0.3939762             -10.7206
       377        2.0000           -0.3882866             -10.5658 (HOMO)
       378                         -0.3519318              -9.5766 (LUMO)
       379                         -0.3448703              -9.3844
       380                         -0.3383986              -9.2083
       381                         -0.3382974              -9.2055
       382                         -0.3382555              -9.2044
       383                         -0.3372692              -9.1776
       384                         -0.3372206              -9.1762
       385                         -0.3371855              -9.1753
       386                         -0.3361208              -9.1463
       387                         -0.3355442              -9.1306
       388                         -0.3353805              -9.1262
       ...                                ...                  ...
       792                          1.5119925              41.1434
      -------------------------------------------------------------
                  HL-Gap            0.0363549 Eh            0.9893 eV

Wiberg/Mayer (AO) data.
largest (>0.10) Wiberg bond orders for each atom

     #   Z sym  total        # sym  WBO       # sym  WBO       # sym  WBO
 ---------------------------------------------------------------------------
     1  28 Ni   3.013 --    37 N    0.664     7 N    0.664    25 N    0.661
                            18 N    0.661
     2   6 C    3.936 --     3 C    1.364    36 C    1.364    38 H    0.970
     3   6 C    3.923 --     2 C    1.364     7 N    1.213     4 C    1.174
     4   6 C    3.960 --     5 C    1.651     3 C    1.174    39 H    0.975
     5   6 C    3.963 --     4 C    1.651     6 C    1.176    40 H    0.972
     6   6 C    3.920 --     8 C    1.324     7 N    1.221     5 C    1.176
     7   7 N    3.403 --     6 C    1.221     3 C    1.213     1 Ni   0.664
     8   6 C    3.940 --    15 C    1.330     6 C    1.324     9 C    1.022
     9   6 C    3.986 --    14 C    1.395    10 C    1.395     8 C    1.022
                            12 N    0.107
    10   6 C    3.988 --    11 C    1.441     9 C    1.395    41 H    0.973
                            13 C    0.109
    11   6 C    3.972 --    10 C    1.441    12 N    1.416    42 H    0.972
                            14 C    0.109
    12   7 N    3.031 --    13 C    1.416    11 C    1.416     9 C    0.107
    13   6 C    3.972 --    14 C    1.441    12 N    1.416    43 H    0.972
                            10 C    0.109
    14   6 C    3.988 --    13 C    1.441     9 C    1.395    44 H    0.973
                            11 C    0.109
    15   6 C    3.915 --     8 C    1.330    18 N    1.206    16 C    1.182
    16   6 C    3.959 --    17 C    1.638    15 C    1.182    45 H    0.972
    17   6 C    3.962 --    16 C    1.638    19 C    1.189    46 H    0.973
    18   7 N    3.407 --    19 C    1.238    15 C    1.206     1 Ni   0.661
    19   6 C    3.905 --    20 C    1.267    18 N    1.238    17 C    1.189
    20   6 C    3.944 --    21 C    1.267    19 C    1.267   110 C    1.176
    21   6 C    3.905 --    20 C    1.267    25 N    1.237    22 C    1.190
    22   6 C    3.961 --    23 C    1.637    21 C    1.190    47 H    0.973
    23   6 C    3.959 --    22 C    1.637    24 C    1.183    48 H    0.973
    24   6 C    3.916 --    26 C    1.328    25 N    1.207    23 C    1.183
    25   7 N    3.407 --    21 C    1.237    24 C    1.207     1 Ni   0.661
    26   6 C    3.940 --    24 C    1.328    33 C    1.322    27 C    1.027
    27   6 C    3.986 --    32 C    1.393    28 C    1.393    26 C    1.027
                            30 N    0.107
    28   6 C    3.987 --    29 C    1.442    27 C    1.393    49 H    0.973
                            31 C    0.109
    29   6 C    3.972 --    28 C    1.442    30 N    1.416    50 H    0.972
                            32 C    0.109
    30   7 N    3.030 --    29 C    1.416    31 C    1.416    27 C    0.107
    31   6 C    3.972 --    32 C    1.442    30 N    1.416    51 H    0.972
                            28 C    0.109
    32   6 C    3.987 --    31 C    1.442    27 C    1.393    52 H    0.973
                            29 C    0.109
    33   6 C    3.920 --    26 C    1.322    37 N    1.222    34 C    1.176
    34   6 C    3.963 --    35 C    1.650    33 C    1.176    53 H    0.972
    35   6 C    3.960 --    34 C    1.650    36 C    1.174    54 H    0.975
    36   6 C    3.923 --     2 C    1.364    37 N    1.213    35 C    1.174
    37   7 N    3.403 --    33 C    1.222    36 C    1.213     1 Ni   0.664
    38   1 H    1.000 --     2 C    0.970
    39   1 H    0.997 --     4 C    0.975
    40   1 H    1.004 --     5 C    0.972
    41   1 H    1.003 --    10 C    0.973
    42   1 H    1.013 --    11 C    0.972
    43   1 H    1.013 --    13 C    0.972
    44   1 H    1.003 --    14 C    0.973
    45   1 H    1.004 --    16 C    0.972
    46   1 H    1.002 --    17 C    0.973
    47   1 H    1.002 --    22 C    0.973
    48   1 H    1.004 --    23 C    0.973
    49   1 H    1.004 --    28 C    0.973
    50   1 H    1.013 --    29 C    0.972
    51   1 H    1.013 --    31 C    0.972
    52   1 H    1.004 --    32 C    0.973
    53   1 H    1.004 --    34 C    0.972
    54   1 H    0.997 --    35 C    0.975
    55  28 Ni   3.005 --    91 N    0.664    61 N    0.663    72 N    0.661
                            79 N    0.660
    56   6 C    3.935 --    90 C    1.364    57 C    1.364    92 H    0.970
    57   6 C    3.923 --    56 C    1.364    61 N    1.214    58 C    1.174
    58   6 C    3.960 --    59 C    1.651    57 C    1.174    93 H    0.975
    59   6 C    3.963 --    58 C    1.651    60 C    1.176    94 H    0.972
    60   6 C    3.920 --    62 C    1.324    61 N    1.221    59 C    1.176
    61   7 N    3.402 --    60 C    1.221    57 C    1.214    55 Ni   0.663
    62   6 C    3.939 --    69 C    1.330    60 C    1.324    63 C    1.022
    63   6 C    3.986 --    68 C    1.395    64 C    1.395    62 C    1.022
                            66 N    0.107
    64   6 C    3.988 --    65 C    1.441    63 C    1.395    95 H    0.973
                            67 C    0.109
    65   6 C    3.972 --    64 C    1.441    66 N    1.416    96 H    0.972
                            68 C    0.109
    66   7 N    3.032 --    67 C    1.417    65 C    1.416    63 C    0.107
    67   6 C    3.972 --    68 C    1.441    66 N    1.417    97 H    0.972
                            64 C    0.109
    68   6 C    3.988 --    67 C    1.441    63 C    1.395    98 H    0.973
                            65 C    0.109
    69   6 C    3.915 --    62 C    1.330    72 N    1.206    70 C    1.183
    70   6 C    3.959 --    71 C    1.638    69 C    1.183    99 H    0.973
    71   6 C    3.961 --    70 C    1.638    73 C    1.190   100 H    0.973
    72   7 N    3.407 --    73 C    1.239    69 C    1.206    55 Ni   0.661
    73   6 C    3.905 --    74 C    1.265    72 N    1.239    71 C    1.190
    74   6 C    3.944 --    75 C    1.265    73 C    1.265   120 C    1.179
    75   6 C    3.905 --    74 C    1.265    79 N    1.239    76 C    1.190
    76   6 C    3.961 --    77 C    1.637    75 C    1.190   101 H    0.973
    77   6 C    3.959 --    76 C    1.637    78 C    1.183   102 H    0.972
    78   6 C    3.915 --    80 C    1.329    79 N    1.207    77 C    1.183
    79   7 N    3.406 --    75 C    1.239    78 C    1.207    55 Ni   0.660
    80   6 C    3.939 --    78 C    1.329    87 C    1.323    81 C    1.025
    81   6 C    3.986 --    86 C    1.394    82 C    1.393    80 C    1.025
                            84 N    0.107
    82   6 C    3.987 --    83 C    1.442    81 C    1.393   103 H    0.973
                            85 C    0.109
    83   6 C    3.972 --    82 C    1.442    84 N    1.416   104 H    0.972
                            86 C    0.109
    84   7 N    3.031 --    85 C    1.416    83 C    1.416    81 C    0.107
    85   6 C    3.972 --    86 C    1.441    84 N    1.416   105 H    0.972
                            82 C    0.109
    86   6 C    3.988 --    85 C    1.441    81 C    1.394   106 H    0.973
                            83 C    0.109
    87   6 C    3.920 --    80 C    1.323    91 N    1.222    88 C    1.176
    88   6 C    3.963 --    89 C    1.650    87 C    1.176   107 H    0.972
    89   6 C    3.960 --    88 C    1.650    90 C    1.174   108 H    0.975
    90   6 C    3.923 --    56 C    1.364    91 N    1.213    89 C    1.174
    91   7 N    3.403 --    87 C    1.222    90 C    1.213    55 Ni   0.664
    92   1 H    1.000 --    56 C    0.970
    93   1 H    0.997 --    58 C    0.975
    94   1 H    1.004 --    59 C    0.972
    95   1 H    1.003 --    64 C    0.973
    96   1 H    1.013 --    65 C    0.972
    97   1 H    1.013 --    67 C    0.972
    98   1 H    1.003 --    68 C    0.973
    99   1 H    1.004 --    70 C    0.973
   100   1 H    1.002 --    71 C    0.973
   101   1 H    1.002 --    76 C    0.973
   102   1 H    1.004 --    77 C    0.972
   103   1 H    1.003 --    82 C    0.973
   104   1 H    1.013 --    83 C    0.972
   105   1 H    1.013 --    85 C    0.972
   106   1 H    1.003 --    86 C    0.973
   107   1 H    1.004 --    88 C    0.972
   108   1 H    0.997 --    89 C    0.975
   109   6 C    3.938 --   110 C    2.489   111 C    1.299
   110   6 C    3.924 --   109 C    2.489    20 C    1.176   112 C    0.199
   111   6 C    3.935 --   112 C    2.487   109 C    1.299
   112   6 C    3.925 --   111 C    2.487   122 C    1.178   110 C    0.199
   113   6 C    3.936 --   114 C    2.481   115 C    1.305
   114   6 C    3.926 --   113 C    2.481   140 C    1.183   116 C    0.200
   115   6 C    3.935 --   116 C    2.481   113 C    1.305
   116   6 C    3.926 --   115 C    2.481   175 C    1.184   114 C    0.200
   117   6 C    3.935 --   118 C    2.484   119 C    1.302
   118   6 C    3.927 --   117 C    2.484   193 C    1.182   120 C    0.200
   119   6 C    3.938 --   120 C    2.485   117 C    1.302
   120   6 C    3.925 --   119 C    2.485    74 C    1.179   118 C    0.200
   121  28 Ni   2.998 --   138 N    0.660   127 N    0.660   157 N    0.660
                           145 N    0.660
   122   6 C    3.934 --   156 C    1.265   123 C    1.265   112 C    1.178
   123   6 C    3.905 --   122 C    1.265   127 N    1.238   124 C    1.192
   124   6 C    3.960 --   125 C    1.634   123 C    1.192   158 H    0.973
   125   6 C    3.960 --   124 C    1.634   126 C    1.185   159 H    0.973
   126   6 C    3.913 --   128 C    1.324   127 N    1.207   125 C    1.185
   127   7 N    3.400 --   123 C    1.238   126 C    1.207   121 Ni   0.660
   128   6 C    3.935 --   135 C    1.326   126 C    1.324   129 C    1.027
   129   6 C    3.986 --   134 C    1.393   130 C    1.393   128 C    1.027
                           132 N    0.107
   130   6 C    3.987 --   131 C    1.442   129 C    1.393   160 H    0.973
                           133 C    0.109
   131   6 C    3.972 --   130 C    1.442   132 N    1.416   161 H    0.972
                           134 C    0.109
   132   7 N    3.030 --   133 C    1.416   131 C    1.416   129 C    0.107
   133   6 C    3.972 --   134 C    1.441   132 N    1.416   162 H    0.972
                           130 C    0.109
   134   6 C    3.987 --   133 C    1.441   129 C    1.393   163 H    0.973
                           131 C    0.109
   135   6 C    3.914 --   128 C    1.326   138 N    1.205   136 C    1.185
   136   6 C    3.959 --   137 C    1.634   135 C    1.185   164 H    0.973
   137   6 C    3.960 --   136 C    1.634   139 C    1.192   165 H    0.973
   138   7 N    3.400 --   139 C    1.240   135 C    1.205   121 Ni   0.660
   139   6 C    3.904 --   140 C    1.262   138 N    1.240   137 C    1.192
   140   6 C    3.935 --   141 C    1.262   139 C    1.262   114 C    1.183
   141   6 C    3.904 --   140 C    1.262   145 N    1.240   142 C    1.192
   142   6 C    3.960 --   143 C    1.635   141 C    1.192   166 H    0.973
   143   6 C    3.959 --   142 C    1.635   144 C    1.185   167 H    0.973
   144   6 C    3.914 --   146 C    1.326   145 N    1.205   143 C    1.185
   145   7 N    3.400 --   141 C    1.240   144 C    1.205   121 Ni   0.660
   146   6 C    3.935 --   144 C    1.326   153 C    1.325   147 C    1.026
   147   6 C    3.986 --   148 C    1.394   152 C    1.393   146 C    1.026
                           150 N    0.107
   148   6 C    3.987 --   149 C    1.441   147 C    1.394   168 H    0.973
                           151 C    0.109
   149   6 C    3.972 --   148 C    1.441   150 N    1.416   169 H    0.972
                           152 C    0.109
   150   7 N    3.031 --   149 C    1.416   151 C    1.416   147 C    0.107
   151   6 C    3.972 --   152 C    1.442   150 N    1.416   170 H    0.972
                           148 C    0.109
   152   6 C    3.987 --   151 C    1.442   147 C    1.393   171 H    0.973
                           149 C    0.109
   153   6 C    3.913 --   146 C    1.325   157 N    1.206   154 C    1.185
   154   6 C    3.960 --   155 C    1.635   153 C    1.185   172 H    0.973
   155   6 C    3.960 --   154 C    1.635   156 C    1.192   173 H    0.973
   156   6 C    3.905 --   122 C    1.265   157 N    1.238   155 C    1.192
   157   7 N    3.400 --   156 C    1.238   153 C    1.206   121 Ni   0.660
   158   1 H    1.002 --   124 C    0.973
   159   1 H    1.004 --   125 C    0.973
   160   1 H    1.004 --   130 C    0.973
   161   1 H    1.013 --   131 C    0.972
   162   1 H    1.013 --   133 C    0.972
   163   1 H    1.004 --   134 C    0.973
   164   1 H    1.004 --   136 C    0.973
   165   1 H    1.002 --   137 C    0.973
   166   1 H    1.002 --   142 C    0.973
   167   1 H    1.004 --   143 C    0.973
   168   1 H    1.003 --   148 C    0.973
   169   1 H    1.013 --   149 C    0.972
   170   1 H    1.013 --   151 C    0.972
   171   1 H    1.004 --   152 C    0.973
   172   1 H    1.004 --   154 C    0.973
   173   1 H    1.002 --   155 C    0.973
   174  28 Ni   3.009 --   198 N    0.661   180 N    0.661   191 N    0.661
                           210 N    0.661
   175   6 C    3.934 --   176 C    1.262   209 C    1.261   116 C    1.184
   176   6 C    3.904 --   175 C    1.262   180 N    1.239   177 C    1.192
   177   6 C    3.960 --   178 C    1.634   176 C    1.192   211 H    0.973
   178   6 C    3.960 --   177 C    1.634   179 C    1.186   212 H    0.973
   179   6 C    3.914 --   181 C    1.325   180 N    1.205   178 C    1.186
   180   7 N    3.399 --   176 C    1.239   179 C    1.205   174 Ni   0.661
   181   6 C    3.935 --   179 C    1.325   188 C    1.323   182 C    1.030
   182   6 C    3.986 --   183 C    1.392   187 C    1.392   181 C    1.030
                           185 N    0.106
   183   6 C    3.987 --   184 C    1.442   182 C    1.392   213 H    0.973
                           186 C    0.109
   184   6 C    3.972 --   183 C    1.442   185 N    1.416   214 H    0.972
                           187 C    0.109
   185   7 N    3.030 --   184 C    1.416   186 C    1.416   182 C    0.106
   186   6 C    3.972 --   187 C    1.442   185 N    1.416   215 H    0.972
                           183 C    0.109
   187   6 C    3.987 --   186 C    1.442   182 C    1.392   216 H    0.973
                           184 C    0.109
   188   6 C    3.913 --   181 C    1.323   191 N    1.206   189 C    1.186
   189   6 C    3.960 --   190 C    1.633   188 C    1.186   217 H    0.973
   190   6 C    3.960 --   189 C    1.633   192 C    1.193   218 H    0.973
   191   7 N    3.399 --   192 C    1.237   188 C    1.206   174 Ni   0.661
   192   6 C    3.905 --   193 C    1.263   191 N    1.237   190 C    1.193
   193   6 C    3.934 --   194 C    1.263   192 C    1.263   118 C    1.182
   194   6 C    3.905 --   193 C    1.263   198 N    1.237   195 C    1.192
   195   6 C    3.960 --   196 C    1.633   194 C    1.192   219 H    0.973
   196   6 C    3.960 --   195 C    1.633   197 C    1.186   220 H    0.973
   197   6 C    3.913 --   199 C    1.323   198 N    1.206   196 C    1.186
   198   7 N    3.399 --   194 C    1.237   197 C    1.206   174 Ni   0.661
   199   6 C    3.935 --   206 C    1.326   197 C    1.323   200 C    1.028
   200   6 C    3.986 --   205 C    1.393   201 C    1.392   199 C    1.028
                           203 N    0.106
   201   6 C    3.987 --   202 C    1.442   200 C    1.392   221 H    0.973
                           204 C    0.109
   202   6 C    3.972 --   201 C    1.442   203 N    1.416   222 H    0.972
                           205 C    0.109
   203   7 N    3.030 --   204 C    1.416   202 C    1.416   200 C    0.106
   204   6 C    3.972 --   205 C    1.441   203 N    1.416   223 H    0.972
                           201 C    0.109
   205   6 C    3.987 --   204 C    1.441   200 C    1.393   224 H    0.973
                           202 C    0.109
   206   6 C    3.914 --   199 C    1.326   210 N    1.204   207 C    1.185
   207   6 C    3.959 --   208 C    1.634   206 C    1.185   225 H    0.973
   208   6 C    3.960 --   207 C    1.634   209 C    1.192   226 H    0.973
   209   6 C    3.904 --   175 C    1.261   210 N    1.239   208 C    1.192
   210   7 N    3.399 --   209 C    1.239   206 C    1.204   174 Ni   0.661
   211   1 H    1.002 --   177 C    0.973
   212   1 H    1.004 --   178 C    0.973
   213   1 H    1.004 --   183 C    0.973
   214   1 H    1.013 --   184 C    0.972
   215   1 H    1.013 --   186 C    0.972
   216   1 H    1.004 --   187 C    0.973
   217   1 H    1.004 --   189 C    0.973
   218   1 H    1.002 --   190 C    0.973
   219   1 H    1.002 --   195 C    0.973
   220   1 H    1.004 --   196 C    0.973
   221   1 H    1.004 --   201 C    0.973
   222   1 H    1.013 --   202 C    0.972
   223   1 H    1.013 --   204 C    0.972
   224   1 H    1.004 --   205 C    0.973
   225   1 H    1.004 --   207 C    0.973
   226   1 H    1.002 --   208 C    0.973
 ---------------------------------------------------------------------------

           -------------------------------------------------
          | TOTAL ENERGY             -407.397167340910 Eh   |
          | GRADIENT NORM               0.000659835672 Eh/α |
          | HOMO-LUMO GAP               0.989265859644 eV   |
           -------------------------------------------------

 * finished run on 2022/07/30 at 02:32:14.023
