   * xtb version 6.5.1 (b24c23e) compiled by 'conda@728c89f4b128' on 2022-07-12
          program call               : xtb Fe_H_C2_3.xyz --gfn 1 --opt -T 48

   ID    Z sym.   atoms
    1   26 Fe     1, 37, 77
    2    6 C      2-6, 8-11, 13-18, 20-24, 38-42, 44-47, 49-54, 56-60, 73-76,
                  78-82, 84-87, 89-94, 96-100
    3    7 N      7, 12, 19, 25, 43, 48, 55, 61, 83, 88, 95, 101
    4    1 H      26-36, 62-72, 102-111

          :  Hamiltonian                  GFN1-xTB          :
 * total energy  :  -198.9459497 Eh     change       -0.7616592E-08 Eh
 * total energy  :  -199.3888207 Eh     change       -0.4428710E+00 Eh
 * total energy  :  -199.5333742 Eh     change       -0.1445534E+00 Eh
 * total energy  :  -199.6453184 Eh     change       -0.1119442E+00 Eh
 * total energy  :  -199.6914275 Eh     change       -0.4610910E-01 Eh
 * total energy  :  -199.7130512 Eh     change       -0.2162369E-01 Eh
 * total energy  :  -199.7260739 Eh     change       -0.1302271E-01 Eh
 * total energy  :  -199.7328922 Eh     change       -0.6818281E-02 Eh
 * total energy  :  -199.7383951 Eh     change       -0.5502921E-02 Eh
 * total energy  :  -199.7434403 Eh     change       -0.5045168E-02 Eh
 * total energy  :  -199.7666295 Eh     change       -0.1268013E-04 Eh
 * total energy  :  -199.7666422 Eh     change       -0.1272590E-04 Eh
 * total energy  :  -199.7666506 Eh     change       -0.8404570E-05 Eh
 * total energy  :  -199.7666604 Eh     change       -0.9747654E-05 Eh
 * total energy  :  -199.7666749 Eh     change       -0.1452033E-04 Eh
 * total energy  :  -199.7666928 Eh     change       -0.1793352E-04 Eh
 * total energy  :  -199.7666989 Eh     change       -0.6096931E-05 Eh
 * total energy  :  -199.7667079 Eh     change       -0.9011546E-05 Eh
 * total energy  :  -199.7667107 Eh     change       -0.2765819E-05 Eh
   *** GEOMETRY OPTIMIZATION CONVERGED AFTER 70 ITERATIONS ***

 final structure:
================
111
 xtb: 6.5.1 (b24c23e)
Fe          18.72701177415500       -0.03028904034389       -0.01571160612627
C           15.31347933209029       -0.00851160366379       -0.03796045920730
C           15.96242508085125       -0.87845041785631       -0.89036656464756
C           15.28599698166973       -1.77605677760025       -1.78090795887468
C           16.24569721448986       -2.42683455644603       -2.47948218819465
C           17.50521131170548       -1.92349663508959       -2.01475005359731
N           17.31976644824000       -0.98859206489148       -1.03373220563634
C           18.72510172790742       -2.31222897587156       -2.53304317199241
C           19.94247403950929       -1.83250531252171       -2.10053210171334
C           21.19690395284989       -2.23004745666932       -2.66532181412654
C           22.15887383893256       -1.58759375774738       -1.96101818920908
N           20.13857835613129       -0.94655714797981       -1.06864837219500
C           21.49014057136328       -0.80654442228052       -0.96504267835992
C           22.16270667918302       -0.03258363524059       -0.01072847421734
C           21.48775240299459        0.73665174204685        0.94593973914379
C           22.15456518362491        1.50804478878479        1.95057214597101
C           21.19106953454168        2.14144155001454        2.66105572117328
C           19.93784650804962        1.75047358118799        2.08933259797782
N           20.13601342583668        0.87475116555059        1.04886507284447
C           18.72041083830080        2.23214863678719        2.51935374124685
C           17.50206041198769        1.86097371014208        1.98482838357896
C           16.24300942240965        2.37673020197731        2.43691151440645
C           15.28473018889227        1.74816087811329        1.71631442359214
C           15.96155849789659        0.84922560610117        0.82744484419211
N           17.31791694244327        0.93849552884601        0.99193802477684
H           14.22939930498486       -0.00070723800826       -0.04640690326130
H           14.21413630203875       -1.87633062683598       -1.84729124944841
H           16.13428597151435       -3.17789247848087       -3.24553700754864
H           18.72482483478766       -3.03921672521666       -3.33752316729900
H           21.30624095403239       -2.91234692826267       -3.49326949969781
H           23.22772416967176       -1.62609678537737       -2.09345588164633
H           23.22313096829659        1.54630581020979        2.08543029081625
H           21.29905137810035        2.81461367448854        3.49660285997406
H           18.71935005595915        2.95075838956147        3.33134315253407
H           16.13066207530883        3.12104295519392        3.20939370896558
H           14.21356692620995        1.86350388096641        1.76788114465434
Fe          40.54402102125141        0.01234447037259       -0.00954549386157
C           43.95737836073177        0.02242502496659        0.04549219730873
C           43.30461347172455        1.23763674405073        0.08299952731962
C           43.97786276760304        2.50263766588646        0.13714785598029
C           43.01534116170892        3.45370528304882        0.17380852405068
C           41.75713908755249        2.76673012518477        0.14530513578414
N           41.94662601613731        1.41344641061816        0.08251390510101
C           40.53380935209204        3.40561932682641        0.19733159090675
C           39.31711896097405        2.75847276826239        0.18499482266211
C           38.05819180474410        3.43742409425980        0.25551334292714
C           37.09985409441054        2.48171995203905        0.20656375779619
N           39.12759507105667        1.40055534469120        0.09676066212825
C           37.77624910576551        1.22395192627333        0.10519874866327
C           37.10998735195695       -0.00113389559369       -0.01794183808356
C           37.78699575251461       -1.21962115194378       -0.14911942650761
C           37.12114652573588       -2.48086906219582       -0.27320247455651
C           38.08743104435681       -3.42733263540160       -0.34217389799792
C           39.34053394997887       -2.73980386004834       -0.25457613000701
N           39.13966447713528       -1.38517202671820       -0.14221327814945
C           40.56194495195742       -3.37803015374045       -0.26213177848167
C           41.77943619019972       -2.73295686416451       -0.16709196819767
C           43.04210210181072       -3.41216169362593       -0.16423652969611
C           43.99670043799817       -2.45671522784411       -0.07287972102660
C           43.31411104881950       -1.19662625718510       -0.02261316755175
N           41.95823286015061       -1.37995564222863       -0.07425024882899
H           45.04135058440157        0.02592007157686        0.06498915499535
H           45.04969002072143        2.62297195653870        0.14516580477012
H           43.12384624222933        4.52586327146335        0.21923224135599
H           40.53023293653192        4.48820390627273        0.25802982793064
H           37.94377162244594        4.50714750543299        0.33030638997902
H           36.02873926328525        2.60143535343778        0.22681403005661
H           36.05112179264066       -2.60927936936367       -0.29624478893783
H           37.98138440933612       -4.49620899256908       -0.43824344504736
H           40.56697193013199       -4.45921172465660       -0.34420601105448
H           43.15892655724521       -4.48267458107494       -0.22527121741102
H           45.06879527279452       -2.57118191096492       -0.04342714846557
C           23.56749549132353       -0.03040912893489       -0.00954752296169
C           24.78660505498471       -0.02674032183458       -0.00932239480472
C           34.48627876071077       -0.01110361008083       -0.01570324147527
C           35.70486688188345       -0.00713865113661       -0.01731708591658
Fe          29.63723361106837       -0.02874164368613        0.00267601291066
C           26.19070128089509       -0.02415400377444       -0.01040539936927
C           26.86475773108566        1.03169956500936        0.61801851287434
C           26.19563276963428        2.12583615645201        1.25255847277263
C           27.15957005463688        2.93337488866577        1.75676273490408
C           28.41289720925424        2.32941601506281        1.42183296871113
N           28.21675183185473        1.16858186024001        0.71497641188904
C           29.63416357372863        2.85765273005723        1.78463558931759
C           30.85721571837662        2.30375486742784        1.46769897197943
C           32.10951676336441        2.87275076847905        1.86254732703838
C           33.07527162170647        2.06979146537260        1.35405542193258
N           31.05496335334219        1.16410752789658        0.72879147237817
C           32.40735622054467        1.01816226719174        0.65015313978680
C           33.08191656881874       -0.01400880591574       -0.01436065670721
C           32.40931970774429       -1.04886797925345       -0.67649946800836
C           33.07934133683752       -2.10168526759407       -1.37649480276681
C           32.11529080818987       -2.90774809644152       -1.88328497215168
C           30.86179545156785       -2.33981542340096       -1.49089613408784
N           31.05695037465285       -1.19517669693779       -0.75891547116956
C           29.64027338773963       -2.89820332411568       -1.80569834428520
C           28.41788069385503       -2.37314704932470       -1.44200430892284
C           27.16598602528083       -2.98376405819943       -1.77046380211786
C           26.20044988936638       -2.17834299264853       -1.26596177546822
C           26.86697516078986       -1.07889029191710       -0.63803343061780
N           28.21924211036161       -1.20851670249114       -0.74257056024599
H           25.12590454581475        2.24917051297877        1.29462744651589
H           27.05154410289795        3.85510804968014        2.30592040349674
H           29.63303957497620        3.77644655164653        2.36085400263759
H           32.21590917022176        3.76878634279036        2.45302391342541
H           34.14528028019654        2.16438867357107        1.44354265214977
H           34.14950585362575       -2.19571888815654       -1.46444110179379
H           32.22389361634560       -3.80612152948419       -2.46978632820026
H           29.64134502331228       -3.81890029404221       -2.37883247943264
H           27.05975611391354       -3.90884984855054       -2.31427522601113
H           25.13118906807635       -2.30708730010775       -1.30301172284080

          :  Hamiltonian                  GFN1-xTB          :
         :: total energy            -199.766710684215 Eh    ::
         :: gradient norm              0.000677582884 Eh/a0 ::
         :: HOMO-LUMO gap              0.060567490164 eV    ::
         :: SCC energy              -202.876836398785 Eh    ::
         :: repulsion energy           3.211562905999 Eh    ::

    * Orbital Energies and Occupations

         #    Occupation            Energy/Eh            Energy/eV
      -------------------------------------------------------------
         1        2.0000           -0.7737378             -21.0545
       ...           ...                  ...                  ...
       174        2.0000           -0.3986725             -10.8484
       175        2.0000           -0.3984829             -10.8433
       176        2.0000           -0.3966016             -10.7921
       177        1.9918           -0.3916450             -10.6572
       178        1.9914           -0.3916002             -10.6560
       179        1.9910           -0.3915572             -10.6548
       180        1.9680           -0.3903348             -10.6216
       181        1.9517           -0.3899376             -10.6107
       182        1.9504           -0.3899107             -10.6100
       183        1.9490           -0.3898841             -10.6093
       184        1.9401           -0.3897269             -10.6050
       185        1.9390           -0.3897085             -10.6045
       186        1.3453           -0.3871066             -10.5337 (HOMO)
       187        0.3296           -0.3848808             -10.4731 (LUMO)
       188        0.3270           -0.3848716             -10.4729
       189        0.3256           -0.3848667             -10.4728
       190                         -0.3457361              -9.4080
       191                         -0.3331924              -9.0666
       192                         -0.3319663              -9.0333
       193                         -0.3292538              -8.9595
       194                         -0.3290519              -8.9540
       195                         -0.3229111              -8.7869
       196                         -0.3062861              -8.3345
       197                         -0.3041089              -8.2752
       ...                                ...                  ...
       395                          1.3300120              36.1915
      -------------------------------------------------------------
                  HL-Gap            0.0022258 Eh            0.0606 eV

Wiberg/Mayer (AO) data.
largest (>0.10) Wiberg bond orders for each atom

     #   Z sym  total        # sym  WBO       # sym  WBO       # sym  WBO
 ---------------------------------------------------------------------------
     1  26 Fe   3.099 --     7 N    0.666    25 N    0.666    19 N    0.660
                            12 N    0.660
     2   6 C    3.919 --     3 C    1.364    24 C    1.363    26 H    0.971
     3   6 C    3.925 --     2 C    1.364     7 N    1.214     4 C    1.169
     4   6 C    3.959 --     5 C    1.655     3 C    1.169    27 H    0.975
     5   6 C    3.961 --     4 C    1.655     6 C    1.170    28 H    0.975
     6   6 C    3.921 --     8 C    1.354     7 N    1.220     5 C    1.170
     7   7 N    3.382 --     6 C    1.220     3 C    1.214     1 Fe   0.666
     8   6 C    3.925 --     9 C    1.376     6 C    1.354    29 H    0.970
     9   6 C    3.918 --     8 C    1.376    12 N    1.195    10 C    1.173
    10   6 C    3.955 --    11 C    1.644     9 C    1.173    30 H    0.975
    11   6 C    3.961 --    10 C    1.644    13 C    1.183    31 H    0.969
    12   7 N    3.380 --    13 C    1.251     9 C    1.195     1 Fe   0.660
    13   6 C    3.908 --    14 C    1.254    12 N    1.251    11 C    1.183
    14   6 C    3.921 --    13 C    1.254    15 C    1.254    73 C    1.194
    15   6 C    3.908 --    14 C    1.254    19 N    1.251    16 C    1.183
    16   6 C    3.960 --    17 C    1.644    15 C    1.183    32 H    0.969
    17   6 C    3.955 --    16 C    1.644    18 C    1.173    33 H    0.975
    18   6 C    3.918 --    20 C    1.377    19 N    1.194    17 C    1.173
    19   7 N    3.380 --    15 C    1.251    18 C    1.194     1 Fe   0.660
    20   6 C    3.925 --    18 C    1.377    21 C    1.354    34 H    0.970
    21   6 C    3.921 --    20 C    1.354    25 N    1.220    22 C    1.170
    22   6 C    3.961 --    23 C    1.655    21 C    1.170    35 H    0.975
    23   6 C    3.959 --    22 C    1.655    24 C    1.169    36 H    0.975
    24   6 C    3.925 --     2 C    1.363    25 N    1.214    23 C    1.169
    25   7 N    3.381 --    21 C    1.220    24 C    1.214     1 Fe   0.666
    26   1 H    1.000 --     2 C    0.971
    27   1 H    0.998 --     4 C    0.975
    28   1 H    0.997 --     5 C    0.975
    29   1 H    1.001 --     8 C    0.970
    30   1 H    0.997 --    10 C    0.975
    31   1 H    1.005 --    11 C    0.969
    32   1 H    1.005 --    16 C    0.969
    33   1 H    0.997 --    17 C    0.975
    34   1 H    1.001 --    20 C    0.970
    35   1 H    0.997 --    22 C    0.975
    36   1 H    0.998 --    23 C    0.975
    37  26 Fe   3.098 --    43 N    0.667    61 N    0.666    55 N    0.660
                            48 N    0.660
    38   6 C    3.920 --    39 C    1.364    60 C    1.363    62 H    0.971
    39   6 C    3.925 --    38 C    1.364    43 N    1.214    40 C    1.169
    40   6 C    3.959 --    41 C    1.655    39 C    1.169    63 H    0.975
    41   6 C    3.961 --    40 C    1.655    42 C    1.170    64 H    0.975
    42   6 C    3.921 --    44 C    1.354    43 N    1.219    41 C    1.170
    43   7 N    3.382 --    42 C    1.219    39 C    1.214    37 Fe   0.667
    44   6 C    3.925 --    45 C    1.376    42 C    1.354    65 H    0.970
    45   6 C    3.918 --    44 C    1.376    48 N    1.195    46 C    1.173
    46   6 C    3.956 --    47 C    1.645    45 C    1.173    66 H    0.975
    47   6 C    3.961 --    46 C    1.645    49 C    1.183    67 H    0.970
    48   7 N    3.381 --    49 C    1.250    45 C    1.195    37 Fe   0.660
    49   6 C    3.909 --    50 C    1.256    48 N    1.250    47 C    1.183
    50   6 C    3.922 --    49 C    1.256    51 C    1.256    76 C    1.190
    51   6 C    3.909 --    50 C    1.256    55 N    1.250    52 C    1.183
    52   6 C    3.960 --    53 C    1.644    51 C    1.183    68 H    0.970
    53   6 C    3.956 --    52 C    1.644    54 C    1.173    69 H    0.975
    54   6 C    3.918 --    56 C    1.376    55 N    1.195    53 C    1.173
    55   7 N    3.381 --    51 C    1.250    54 C    1.195    37 Fe   0.660
    56   6 C    3.925 --    54 C    1.376    57 C    1.354    70 H    0.970
    57   6 C    3.921 --    56 C    1.354    61 N    1.219    58 C    1.170
    58   6 C    3.961 --    59 C    1.655    57 C    1.170    71 H    0.975
    59   6 C    3.959 --    58 C    1.655    60 C    1.169    72 H    0.975
    60   6 C    3.925 --    38 C    1.363    61 N    1.214    59 C    1.169
    61   7 N    3.382 --    57 C    1.219    60 C    1.214    37 Fe   0.666
    62   1 H    1.000 --    38 C    0.971
    63   1 H    0.998 --    40 C    0.975
    64   1 H    0.997 --    41 C    0.975
    65   1 H    1.001 --    44 C    0.970
    66   1 H    0.997 --    46 C    0.975
    67   1 H    1.004 --    47 C    0.970
    68   1 H    1.004 --    52 C    0.970
    69   1 H    0.997 --    53 C    0.975
    70   1 H    1.001 --    56 C    0.970
    71   1 H    0.998 --    58 C    0.975
    72   1 H    0.998 --    59 C    0.975
    73   6 C    3.916 --    74 C    2.547    14 C    1.194
    74   6 C    3.923 --    73 C    2.547    78 C    1.197
    75   6 C    3.923 --    76 C    2.550    90 C    1.194
    76   6 C    3.916 --    75 C    2.550    50 C    1.190
    77  26 Fe   3.060 --    95 N    0.651    83 N    0.651   101 N    0.650
                            88 N    0.650
    78   6 C    3.906 --   100 C    1.251    79 C    1.250    74 C    1.197
    79   6 C    3.909 --    83 N    1.254    78 C    1.250    80 C    1.186
    80   6 C    3.960 --    81 C    1.639    79 C    1.186   102 H    0.969
    81   6 C    3.957 --    80 C    1.639    82 C    1.177   103 H    0.975
    82   6 C    3.917 --    84 C    1.365    83 N    1.199    81 C    1.177
    83   7 N    3.370 --    79 C    1.254    82 C    1.199    77 Fe   0.651
    84   6 C    3.916 --    82 C    1.365    85 C    1.363   104 H    0.970
    85   6 C    3.916 --    84 C    1.363    88 N    1.201    86 C    1.178
    86   6 C    3.957 --    87 C    1.639    85 C    1.178   105 H    0.975
    87   6 C    3.960 --    86 C    1.639    89 C    1.186   106 H    0.970
    88   7 N    3.370 --    89 C    1.252    85 C    1.201    77 Fe   0.650
    89   6 C    3.910 --    90 C    1.252    88 N    1.252    87 C    1.186
    90   6 C    3.905 --    91 C    1.252    89 C    1.252    75 C    1.194
    91   6 C    3.910 --    90 C    1.252    95 N    1.252    92 C    1.186
    92   6 C    3.960 --    93 C    1.639    91 C    1.186   107 H    0.970
    93   6 C    3.957 --    92 C    1.639    94 C    1.178   108 H    0.975
    94   6 C    3.916 --    96 C    1.364    95 N    1.201    93 C    1.178
    95   7 N    3.370 --    91 C    1.252    94 C    1.201    77 Fe   0.651
    96   6 C    3.916 --    97 C    1.365    94 C    1.364   109 H    0.970
    97   6 C    3.917 --    96 C    1.365   101 N    1.200    98 C    1.177
    98   6 C    3.957 --    99 C    1.640    97 C    1.177   110 H    0.975
    99   6 C    3.960 --    98 C    1.640   100 C    1.186   111 H    0.969
   100   6 C    3.909 --   101 N    1.253    78 C    1.251    99 C    1.186
   101   7 N    3.370 --   100 C    1.253    97 C    1.200    77 Fe   0.650
   102   1 H    1.005 --    80 C    0.969
   103   1 H    0.997 --    81 C    0.975
   104   1 H    1.001 --    84 C    0.970
   105   1 H    0.997 --    86 C    0.975
   106   1 H    1.004 --    87 C    0.970
   107   1 H    1.004 --    92 C    0.970
   108   1 H    0.997 --    93 C    0.975
   109   1 H    1.001 --    96 C    0.970
   110   1 H    0.997 --    98 C    0.975
   111   1 H    1.005 --    99 C    0.969
 ---------------------------------------------------------------------------

           -------------------------------------------------
          | TOTAL ENERGY             -199.766710684215 Eh   |
          | GRADIENT NORM               0.000677582884 Eh/α |
          | HOMO-LUMO GAP               0.060567490164 eV   |
           -------------------------------------------------

 * finished run on 2022/07/29 at 15:51:32.062
