   * xtb version 6.5.1 (b24c23e) compiled by 'conda@728c89f4b128' on 2022-07-12
          program call               : xtb Fe_Py_C2_2.xyz --gfn 1 --opt -T 48

   ID    Z sym.   atoms
    1   26 Fe     1, 55
    2    6 C      2-6, 8-11, 13-17, 19-24, 26-29, 31-36, 56-60, 62-65, 67-71,
                  73-78, 80-83, 85-90, 109, 110
    3    7 N      7, 12, 18, 25, 30, 37, 61, 66, 72, 79, 84, 91
    4    1 H      38-54, 92-108
########################################################################
[WARNING] Please study the warnings concerning your input carefully
-1- prog_main_parseArguments: Unknown option '-T' provided
########################################################################

          :  Hamiltonian                  GFN1-xTB          :
 * total energy  :  -192.8614530 Eh     change       -0.6906475E-11 Eh
 * total energy  :  -193.3481409 Eh     change       -0.4866878E+00 Eh
 * total energy  :  -193.4702958 Eh     change       -0.1221550E+00 Eh
 * total energy  :  -193.5230174 Eh     change       -0.5272160E-01 Eh
 * total energy  :  -193.5517018 Eh     change       -0.2868434E-01 Eh
 * total energy  :  -193.5655196 Eh     change       -0.1381780E-01 Eh
 * total energy  :  -193.5745423 Eh     change       -0.9022680E-02 Eh
 * total energy  :  -193.5806378 Eh     change       -0.6095550E-02 Eh
 * total energy  :  -193.5848568 Eh     change       -0.4218981E-02 Eh
 * total energy  :  -193.5877763 Eh     change       -0.2919514E-02 Eh
 * total energy  :  -193.5941954 Eh     change       -0.3413316E-04 Eh
 * total energy  :  -193.5942379 Eh     change       -0.4251905E-04 Eh
 * total energy  :  -193.5942642 Eh     change       -0.2630139E-04 Eh
 * total energy  :  -193.5942794 Eh     change       -0.1525357E-04 Eh
 * total energy  :  -193.5943019 Eh     change       -0.2242559E-04 Eh
 * total energy  :  -193.5943126 Eh     change       -0.1069303E-04 Eh
 * total energy  :  -193.5943316 Eh     change       -0.1898963E-04 Eh
 * total energy  :  -193.5943368 Eh     change       -0.5281526E-05 Eh
 * total energy  :  -193.5943407 Eh     change       -0.3837855E-05 Eh
   *** GEOMETRY OPTIMIZATION CONVERGED AFTER 30 ITERATIONS ***

 final structure:
================
110
 xtb: 6.5.1 (b24c23e)
Fe          13.67200904988323       -0.05178914278220        0.01372934535897
C           10.28614768289783       -0.08422238922278       -0.03180617226475
C           10.94236424563800       -1.29692302745297       -0.08405766115093
C           10.27263162413244       -2.56201262594944       -0.12751012491895
C           11.23033937812259       -3.51225601971381       -0.01575686799216
C           12.48597811913173       -2.82614093417678        0.08756910806015
N           12.29849428229707       -1.47238642493340        0.00839939556645
C           13.69626826516845       -3.45341602925197        0.36117783899577
C           13.70663365660287       -4.92429490420163        0.54408245160804
C           14.00153442501532       -5.49668296474675        1.78034321849187
C           14.00151146087759       -6.87745876859406        1.90143065537348
N           13.73627878491820       -7.69327598924763        0.88636588259676
C           13.45546848889833       -7.15475395468355       -0.29568371247894
C           13.42551963920940       -5.78625811202717       -0.51442515368373
C           14.89575295330788       -2.76443042256949        0.47509125190405
C           16.15544454163162       -3.38728218925878        0.75276530934577
C           17.10082817740240       -2.42389424018817        0.63686289804473
N           15.07471220197410       -1.42747888075083        0.21034975575667
C           16.42086145320077       -1.22001221055307        0.27588011880598
C           17.08117358775296       -0.03144491061453       -0.06138064677047
C           16.39638835445011        1.14837800020438       -0.37804650948298
C           17.04731480909513        2.35967956539676       -0.76635736007008
C           16.08642037461333        3.31183237358529       -0.84459317111695
C           14.84912634237630        2.67703053458252       -0.50186212994504
N           15.04898158492370        1.33612973828539       -0.27659918870467
C           13.64252287444955        3.34966988065401       -0.36151787403805
C           13.63821744356705        4.82463384868449       -0.48370088245394
C           12.88926340421394        5.47261188004124       -1.46522077187223
C           12.92121593260165        6.85652323447489       -1.53493473845318
N           13.63253234020703        7.60785717906515       -0.70069961572757
C           14.34815137324682        6.99812663474819        0.23884860388855
C           14.38589741843108        5.62044775764952        0.38387094879182
C           12.44049884764630        2.69581016237470       -0.11131623977434
C           11.18112083846266        3.35923940329749        0.06589258960901
C           10.23656300530315        2.39174441706879        0.14141790898974
C           10.92167873183806        1.13951867797996        0.02918611574131
N           12.27201353985322        1.33789304594315       -0.08800456084122
H            9.20204359938901       -0.09405184039831       -0.02541683238225
H            9.20487673364788       -2.68591124297871       -0.21448200787913
H           11.10918588303983       -4.58294351702170        0.01267476491916
H           14.21422297407512       -4.86941667217557        2.63771574000318
H           14.22493186810404       -7.34763162632655        2.85459348106640
H           13.24534285536508       -7.84741398124083       -1.10533617235655
H           13.20211122274208       -5.39149590574921       -1.49829549691651
H           16.29118279516976       -4.42907534580669        0.99285470469980
H           18.16598278954481       -2.51001442070753        0.77466923895658
H           18.10345485084472        2.45587037088040       -0.95672378161632
H           16.19498244744893        4.34942652752798       -1.11495966362235
H           12.30407792779078        4.90027751039754       -2.17503234727555
H           12.35028590373371        7.38385041195041       -2.29353448909506
H           14.91718568778815        7.63891907107241        0.90601659368715
H           14.97533405087682        5.16656268125327        1.17159752824229
H           11.04946308910383        4.42749252141238        0.12399377299230
H            9.17042228143651        2.49708915699719        0.26477578709550
Fe          24.51828537031576        0.05354334715487       -0.00192125885255
C           27.90414682757523        0.07133640678165       -0.05491985549944
C           27.24793039455653        1.21646122628803       -0.45748958306283
C           27.91766318962511        2.41427024337265       -0.86687107362932
C           26.95995559091242        3.35595733396104       -1.03621402615150
C           25.70431674723252        2.72952050242294       -0.73787398097246
N           25.89180039871897        1.41122592384739       -0.42003979016778
C           24.49402654962710        3.40924713417719       -0.65845580953517
C           24.48366132808136        4.86976640873536       -0.91108663264401
C           24.18876198338883        5.77685209912185        0.10536069618198
C           24.18878482255570        7.13318817627695       -0.18022010637683
N           24.45401595221717        7.61865195132038       -1.38862399034726
C           24.73482486384732        6.75973039393442       -2.36304779866612
C           24.76477386288983        5.38675252502750       -2.17447295202189
C           23.29454166634378        2.78314204931649       -0.34915117542440
C           22.03485025543117        3.45981883115703       -0.26455671301799
C           21.08946650443457        2.50434930653566       -0.09536031285979
N           23.11558221913165        1.42697260415256       -0.21375676904157
C           21.76943300808702        1.24752019528666       -0.09073783579299
C           21.10912085087513        0.01224124465999       -0.06787094188881
C           21.79390614294864       -1.20868343206822       -0.02784245245706
C           21.14297962664714       -2.48055668313689       -0.04721247898808
C           22.10387421893329       -3.41432604553074        0.15475344540514
C           23.34116831701204       -2.70730156616885        0.29812078874952
N           23.14131303274445       -1.35883080756722        0.12380743073921
C           24.54777151260348       -3.31008232306334        0.62796342644411
C           24.55207658625613       -4.75685573546436        0.93988336311802
C           25.30103198003450       -5.66220676205736        0.18915419223596
C           25.26907912423621       -7.00660587788582        0.52480537687049
N           24.55776136108822       -7.48294193840840        1.54144345781269
C           23.84214099576244       -6.62638892052027        2.26313398630992
C           23.80439498910589       -5.26605821668195        2.00134986790257
C           25.74979540013989       -2.61172445523954        0.67725871004587
C           27.00917306425038       -3.19497461267354        1.03969683205262
C           27.95373101248049       -2.24731417932156        0.83067494969395
C           27.26861563527596       -1.08181037315098        0.35922335794721
N           25.91828087196681       -1.30568722050890        0.30476856549249
H           28.98825091208036        0.08259879429036       -0.05166419436300
H           28.98541810902265        2.50753096045362       -0.98610760129247
H           27.08110916368782        4.38866110130451       -1.32029672281684
H           23.97607448289152        5.42594799008962        1.10806573329131
H           23.96536547755160        7.86016786051179        0.59507525175471
H           24.94494927206766        7.18707722966558       -3.33910630796542
H           24.98818123184780        4.72299831463969       -3.00107374065605
H           21.89911226191544        4.52641259836272       -0.33772571975266
H           20.02431202485070        2.62681488917532        0.01145597335465
H           20.08683930096747       -2.62793835478090       -0.20138805074146
H           21.99531223609321       -4.48570493825133        0.19772950847432
H           25.88621883239518       -5.32096361834842       -0.65639332482100
H           25.84001033095370       -7.73170681732904       -0.04771085823034
H           23.27310527247647       -7.04553102179781        3.08778323276322
H           23.21495714404633       -4.60275863155425        2.62308699892628
H           27.14083050544511       -4.20019058367978        1.40586810901998
H           29.01987156893343       -2.31224363776444        0.97933286894338
C           18.48586503696770       -0.01908912752391       -0.07152241288355
C           19.70442938502735       -0.00252965373114       -0.07398248831914

          :  Hamiltonian                  GFN1-xTB          :
         :: total energy            -193.594340663542 Eh    ::
         :: gradient norm              0.000501913611 Eh/a0 ::
         :: HOMO-LUMO gap              0.097000434629 eV    ::
         :: SCC energy              -196.574585703952 Eh    ::
         :: repulsion energy           3.083210993048 Eh    ::

    * Orbital Energies and Occupations

         #    Occupation            Energy/Eh            Energy/eV
      -------------------------------------------------------------
         1        2.0000           -0.7763846             -21.1265
       ...           ...                  ...                  ...
       167        2.0000           -0.4225240             -11.4975
       168        2.0000           -0.4224814             -11.4963
       169        2.0000           -0.4224541             -11.4956
       170        2.0000           -0.4070352             -11.0760
       171        2.0000           -0.4036562             -10.9840
       172        2.0000           -0.4036465             -10.9838
       173        1.9921           -0.3958921             -10.7728
       174        1.9917           -0.3958467             -10.7715
       175        1.9439           -0.3940042             -10.7214
       176        1.9421           -0.3939732             -10.7206
       177        1.9377           -0.3939002             -10.7186
       178        1.9375           -0.3938981             -10.7185
       179        1.7603           -0.3925295             -10.6813 (HOMO)
       180        0.2941           -0.3889648             -10.5843 (LUMO)
       181        0.2004           -0.3885500             -10.5730
       182                         -0.3458094              -9.4100
       183                         -0.3355095              -9.1297
       184                         -0.3354970              -9.1293
       185                         -0.3284371              -8.9372
       186                         -0.3069584              -8.3528
       187                         -0.3068524              -8.3499
       188                         -0.3054947              -8.3129
       189                         -0.2979937              -8.1088
       190                         -0.2842714              -7.7354
       ...                                ...                  ...
       382                          1.3266504              36.1000
      -------------------------------------------------------------
                  HL-Gap            0.0035647 Eh            0.0970 eV

Wiberg/Mayer (AO) data.
largest (>0.10) Wiberg bond orders for each atom

     #   Z sym  total        # sym  WBO       # sym  WBO       # sym  WBO
 ---------------------------------------------------------------------------
     1  26 Fe   3.188 --     7 N    0.676    25 N    0.669    37 N    0.667
                            18 N    0.662
     2   6 C    3.925 --     3 C    1.364    36 C    1.361    38 H    0.970
     3   6 C    3.924 --     2 C    1.364     7 N    1.208     4 C    1.172
     4   6 C    3.959 --     5 C    1.651     3 C    1.172    39 H    0.975
     5   6 C    3.961 --     4 C    1.651     6 C    1.174    40 H    0.973
     6   6 C    3.921 --     8 C    1.316     7 N    1.223     5 C    1.174
     7   7 N    3.383 --     6 C    1.223     3 C    1.208     1 Fe   0.676
     8   6 C    3.927 --    15 C    1.332     6 C    1.316     9 C    1.023
     9   6 C    3.986 --    14 C    1.395    10 C    1.394     8 C    1.023
                            12 N    0.107
    10   6 C    3.987 --    11 C    1.441     9 C    1.394    41 H    0.973
                            13 C    0.109
    11   6 C    3.972 --    10 C    1.441    12 N    1.416    42 H    0.972
                            14 C    0.109
    12   7 N    3.031 --    13 C    1.417    11 C    1.416     9 C    0.107
    13   6 C    3.972 --    14 C    1.441    12 N    1.417    43 H    0.972
                            10 C    0.109
    14   6 C    3.987 --    13 C    1.441     9 C    1.395    44 H    0.973
                            11 C    0.109
    15   6 C    3.918 --     8 C    1.332    18 N    1.200    16 C    1.180
    16   6 C    3.957 --    17 C    1.637    15 C    1.180    45 H    0.973
    17   6 C    3.961 --    16 C    1.637    19 C    1.189    46 H    0.968
    18   7 N    3.380 --    19 C    1.244    15 C    1.200     1 Fe   0.662
    19   6 C    3.908 --    20 C    1.253    18 N    1.244    17 C    1.189
    20   6 C    3.925 --    21 C    1.255    19 C    1.253   109 C    1.193
    21   6 C    3.908 --    20 C    1.255    25 N    1.242    22 C    1.189
    22   6 C    3.960 --    23 C    1.636    21 C    1.189    47 H    0.968
    23   6 C    3.956 --    22 C    1.636    24 C    1.181    48 H    0.973
    24   6 C    3.918 --    26 C    1.330    25 N    1.201    23 C    1.181
    25   7 N    3.383 --    21 C    1.242    24 C    1.201     1 Fe   0.669
    26   6 C    3.927 --    24 C    1.330    33 C    1.312    27 C    1.031
    27   6 C    3.986 --    28 C    1.392    32 C    1.391    26 C    1.031
                            30 N    0.106
    28   6 C    3.986 --    29 C    1.442    27 C    1.392    49 H    0.973
                            31 C    0.109
    29   6 C    3.972 --    28 C    1.442    30 N    1.416    50 H    0.972
                            32 C    0.109
    30   7 N    3.030 --    29 C    1.416    31 C    1.415    27 C    0.106
    31   6 C    3.972 --    32 C    1.442    30 N    1.415    51 H    0.972
                            28 C    0.109
    32   6 C    3.986 --    31 C    1.442    27 C    1.391    52 H    0.973
                            29 C    0.109
    33   6 C    3.922 --    26 C    1.312    37 N    1.223    34 C    1.175
    34   6 C    3.961 --    35 C    1.649    33 C    1.175    53 H    0.973
    35   6 C    3.959 --    34 C    1.649    36 C    1.174    54 H    0.975
    36   6 C    3.924 --     2 C    1.361    37 N    1.210    35 C    1.174
    37   7 N    3.379 --    33 C    1.223    36 C    1.210     1 Fe   0.667
    38   1 H    1.000 --     2 C    0.970
    39   1 H    0.997 --     4 C    0.975
    40   1 H    1.004 --     5 C    0.973
    41   1 H    1.003 --    10 C    0.973
    42   1 H    1.013 --    11 C    0.972
    43   1 H    1.013 --    13 C    0.972
    44   1 H    1.003 --    14 C    0.973
    45   1 H    1.004 --    16 C    0.973
    46   1 H    1.005 --    17 C    0.968
    47   1 H    1.005 --    22 C    0.968
    48   1 H    1.004 --    23 C    0.973
    49   1 H    1.004 --    28 C    0.973
    50   1 H    1.013 --    29 C    0.972
    51   1 H    1.013 --    31 C    0.972
    52   1 H    1.004 --    32 C    0.973
    53   1 H    1.004 --    34 C    0.973
    54   1 H    0.997 --    35 C    0.975
    55  26 Fe   3.188 --    61 N    0.676    79 N    0.669    91 N    0.667
                            72 N    0.662
    56   6 C    3.925 --    57 C    1.364    90 C    1.361    92 H    0.970
    57   6 C    3.924 --    56 C    1.364    61 N    1.208    58 C    1.172
    58   6 C    3.959 --    59 C    1.651    57 C    1.172    93 H    0.975
    59   6 C    3.961 --    58 C    1.651    60 C    1.174    94 H    0.973
    60   6 C    3.921 --    62 C    1.316    61 N    1.223    59 C    1.174
    61   7 N    3.383 --    60 C    1.223    57 C    1.208    55 Fe   0.676
    62   6 C    3.927 --    69 C    1.332    60 C    1.316    63 C    1.023
    63   6 C    3.986 --    68 C    1.395    64 C    1.394    62 C    1.023
                            66 N    0.107
    64   6 C    3.987 --    65 C    1.441    63 C    1.394    95 H    0.973
                            67 C    0.109
    65   6 C    3.972 --    64 C    1.441    66 N    1.416    96 H    0.972
                            68 C    0.109
    66   7 N    3.031 --    67 C    1.417    65 C    1.416    63 C    0.107
    67   6 C    3.972 --    68 C    1.441    66 N    1.417    97 H    0.972
                            64 C    0.109
    68   6 C    3.987 --    67 C    1.441    63 C    1.395    98 H    0.973
                            65 C    0.109
    69   6 C    3.918 --    62 C    1.332    72 N    1.200    70 C    1.180
    70   6 C    3.957 --    71 C    1.637    69 C    1.180    99 H    0.973
    71   6 C    3.961 --    70 C    1.637    73 C    1.189   100 H    0.968
    72   7 N    3.380 --    73 C    1.244    69 C    1.200    55 Fe   0.662
    73   6 C    3.908 --    74 C    1.253    72 N    1.244    71 C    1.189
    74   6 C    3.925 --    75 C    1.255    73 C    1.253   110 C    1.193
    75   6 C    3.908 --    74 C    1.255    79 N    1.242    76 C    1.189
    76   6 C    3.960 --    77 C    1.636    75 C    1.189   101 H    0.968
    77   6 C    3.956 --    76 C    1.636    78 C    1.181   102 H    0.973
    78   6 C    3.918 --    80 C    1.330    79 N    1.201    77 C    1.181
    79   7 N    3.383 --    75 C    1.242    78 C    1.201    55 Fe   0.669
    80   6 C    3.927 --    78 C    1.330    87 C    1.312    81 C    1.031
    81   6 C    3.986 --    82 C    1.392    86 C    1.391    80 C    1.031
                            84 N    0.106
    82   6 C    3.986 --    83 C    1.442    81 C    1.392   103 H    0.973
                            85 C    0.109
    83   6 C    3.972 --    82 C    1.442    84 N    1.416   104 H    0.972
                            86 C    0.109
    84   7 N    3.030 --    83 C    1.416    85 C    1.415    81 C    0.106
    85   6 C    3.972 --    86 C    1.442    84 N    1.415   105 H    0.972
                            82 C    0.109
    86   6 C    3.986 --    85 C    1.442    81 C    1.391   106 H    0.973
                            83 C    0.109
    87   6 C    3.922 --    80 C    1.312    91 N    1.223    88 C    1.175
    88   6 C    3.961 --    89 C    1.649    87 C    1.175   107 H    0.973
    89   6 C    3.959 --    88 C    1.649    90 C    1.174   108 H    0.975
    90   6 C    3.924 --    56 C    1.361    91 N    1.210    89 C    1.174
    91   7 N    3.379 --    87 C    1.223    90 C    1.210    55 Fe   0.667
    92   1 H    1.000 --    56 C    0.970
    93   1 H    0.997 --    58 C    0.975
    94   1 H    1.004 --    59 C    0.973
    95   1 H    1.003 --    64 C    0.973
    96   1 H    1.013 --    65 C    0.972
    97   1 H    1.013 --    67 C    0.972
    98   1 H    1.003 --    68 C    0.973
    99   1 H    1.004 --    70 C    0.973
   100   1 H    1.005 --    71 C    0.968
   101   1 H    1.005 --    76 C    0.968
   102   1 H    1.004 --    77 C    0.973
   103   1 H    1.004 --    82 C    0.973
   104   1 H    1.013 --    83 C    0.972
   105   1 H    1.013 --    85 C    0.972
   106   1 H    1.004 --    86 C    0.973
   107   1 H    1.004 --    88 C    0.973
   108   1 H    0.997 --    89 C    0.975
   109   6 C    3.924 --   110 C    2.552    20 C    1.193
   110   6 C    3.924 --   109 C    2.552    74 C    1.193
 ---------------------------------------------------------------------------

           -------------------------------------------------
          | TOTAL ENERGY             -193.594340663542 Eh   |
          | GRADIENT NORM               0.000501913611 Eh/α |
          | HOMO-LUMO GAP               0.097000434629 eV   |
           -------------------------------------------------

 * finished run on 2022/07/29 at 16:23:56.216
