   * xtb version 6.5.1 (b24c23e) compiled by 'conda@728c89f4b128' on 2022-07-12
          program call               : xtb Ni_H_C8_3.xyz --gfn 1 --opt -T 48

   ID    Z sym.   atoms
    1   28 Ni     1, 37, 89
    2    6 C      2-6, 8-11, 13-18, 20-24, 38-42, 44-47, 49-54, 56-60, 73-88,
                  90-94, 96-99, 101-106, 108-112
    3    7 N      7, 12, 19, 25, 43, 48, 55, 61, 95, 100, 107, 113
    4    1 H      26-36, 62-72, 114-123

          :  Hamiltonian                  GFN1-xTB          :
 * total energy  :  -225.2816010 Eh     change       -0.1514024E-08 Eh
 * total energy  :  -227.2230023 Eh     change       -0.1941401E+01 Eh
 * total energy  :  -227.5401506 Eh     change       -0.3171484E+00 Eh
 * total energy  :  -227.6710995 Eh     change       -0.1309489E+00 Eh
 * total energy  :  -227.7485894 Eh     change       -0.7748985E-01 Eh
 * total energy  :  -227.8069267 Eh     change       -0.5833731E-01 Eh
 * total energy  :  -227.8656368 Eh     change       -0.5871007E-01 Eh
 * total energy  :  -227.9322033 Eh     change       -0.6656655E-01 Eh
 * total energy  :  -228.0019771 Eh     change       -0.6977380E-01 Eh
 * total energy  :  -228.0535743 Eh     change       -0.5159720E-01 Eh
 * total energy  :  -228.2367898 Eh     change       -0.4036568E-04 Eh
 * total energy  :  -228.2368163 Eh     change       -0.2645186E-04 Eh
 * total energy  :  -228.2368379 Eh     change       -0.2168904E-04 Eh
 * total energy  :  -228.2368529 Eh     change       -0.1494300E-04 Eh
 * total energy  :  -228.2368664 Eh     change       -0.1350271E-04 Eh
 * total energy  :  -228.2368729 Eh     change       -0.6515305E-05 Eh
 * total energy  :  -228.2368820 Eh     change       -0.9068299E-05 Eh
 * total energy  :  -228.2368872 Eh     change       -0.5205727E-05 Eh
 * total energy  :  -228.2368909 Eh     change       -0.3742145E-05 Eh
   *** GEOMETRY OPTIMIZATION CONVERGED AFTER 61 ITERATIONS ***

 final structure:
================
123
 xtb: 6.5.1 (b24c23e)
Ni          11.03269954934019       -0.01664204399387       -0.02092279126616
C            7.62090447996131       -0.06514543021001       -0.01076550074930
C            8.28060794428837       -0.91133324618510       -0.87807389040151
C            7.61190388088178       -1.80603581235895       -1.77615740419297
C            8.57693508935280       -2.45944087673655       -2.46418366250753
C            9.83252213989415       -1.96429510028181       -1.98256973507425
N            9.64185606752554       -1.01531420021069       -1.01110792773923
C           11.05581404909339       -2.40257690619102       -2.44588007227661
C           12.26910295770045       -1.94129712462490       -1.98052157424274
C           13.53062907733929       -2.41509298978624       -2.46169085936826
C           14.48484549989230       -1.74537608519291       -1.77218804602177
N           12.44725228683842       -0.98677911895266       -1.00569705390265
C           13.80230797190347       -0.86424166647182       -0.87545701649560
C           14.46572882517215        0.00006312000413        0.00090210382022
C           13.78288574518686        0.86583609717342        0.86065245697812
C           14.44541981514916        1.76675227409829        1.75273097974904
C           13.47607614215487        2.44273960869468        2.41443007266334
C           12.22540568353728        1.94921540545471        1.92481684276987
N           12.42513141942482        0.98025937161219        0.96862097103685
C           11.00188304437666        2.39903865487826        2.37432887501275
C            9.78882562544663        1.92378299914843        1.92062253973059
C            8.52246524669565        2.38935958678611        2.40347494328519
C            7.57257988688901        1.69319018705904        1.73663617377060
C            8.26127804226254        0.80616136028049        0.84607505276731
N            9.61969390661577        0.95398945645964        0.96587772037480
H            6.53726569384234       -0.08222630410857       -0.00592182409003
H            6.54056187746869       -1.90344109751883       -1.85367962556478
H            8.47172938299334       -3.21166784877865       -3.22992324153968
H           11.06450763745704       -3.16043436373910       -3.22074370353642
H           13.64949027763269       -3.16482075995196       -3.22764334357787
H           15.55711954129154       -1.82613484700270       -1.85045796987775
H           15.51579668886820        1.85670455493724        1.84565593947597
H           13.57789493172958        3.20698661628684        3.16838751367911
H           10.99341620651295        3.17092811395107        3.13521693967904
H            8.40025201761845        3.15091116421057        3.15737738147089
H            6.49940898771748        1.75836795443776        1.82226163868930
Ni          48.26821237208716        0.00484023328383       -0.00400506378050
C           51.67910691570329        0.04200502796102       -0.07787534202373
C           51.01482955386656        1.25077299288880       -0.11093902443971
C           51.67855328203584        2.51978809749576       -0.16861091948823
C           50.71025344157108        3.46529477494632       -0.16929970003175
C           49.45751283357782        2.77130203761310       -0.11767552359875
N           49.65327095324420        1.41444197661249       -0.08142454766837
C           48.23193138597231        3.40462400461891       -0.11679626611628
C           47.02118635641298        2.74509958397711       -0.09156942886777
C           45.75696965160571        3.41494863666673       -0.11629934307987
C           44.80659679914277        2.45019018602468       -0.09622466411174
N           46.84848966068219        1.38073579889950       -0.05227439356786
C           45.49407072223866        1.19634629922698       -0.05415257627489
C           44.83580324074462       -0.03639502341506       -0.01274602489136
C           45.52320619778182       -1.25197796110246        0.05314657068864
C           44.86569436552956       -2.52049049535167        0.12448296921192
C           45.83868360244823       -3.46006694608582        0.19434261676698
C           47.08663390214422       -2.76078262914878        0.15970473831270
N           46.88161674718409       -1.40307207215866        0.07347963326053
C           48.31273303769696       -3.39068318117069        0.19766888577639
C           49.52301029209269       -2.73111842040675        0.13938003113872
C           50.79196685151960       -3.39685600315722        0.15299767098572
C           51.73756976264229       -2.43265745095649        0.06494793220278
C           51.04383255615495       -1.17997551198769        0.00359963160262
N           49.68649331988134       -1.37253204091268        0.04882287566189
H           52.76242875145851        0.05356350681105       -0.10725182576038
H           52.74915928586064        2.64646099541943       -0.20063397147637
H           50.81143861537637        4.53854103904024       -0.20359343988019
H           48.21904563420468        4.48800663575140       -0.14764342530479
H           45.63386190562093        4.48581232810043       -0.14781031584591
H           43.73390072061294        2.55815752178599       -0.10619951784453
H           43.79586661008733       -2.65429844608383        0.12314612530611
H           45.74105662494077       -4.53194561375160        0.26105806240637
H           48.32558819290335       -4.47225939492101        0.26740944967913
H           50.91864527305699       -4.46589018256054        0.21921166666996
H           52.81094271489518       -2.53624920353327        0.04461860878517
C           15.87083604253307        0.00309879861884        0.01315655145237
C           17.09516667913390        0.00410999806336        0.02238330747647
C           18.43863625336958        0.00406336810449        0.02960731093616
C           19.66921676374423        0.00387026261564        0.03327215667825
C           21.00779253014321        0.00216875215973        0.03434387483996
C           22.23842985400151       -0.00223679376091        0.03314217829894
C           23.58171102082224       -0.00578663462086        0.02842601891484
C           24.80612570329971       -0.00934267210027        0.02148348007814
C           34.49493316028281       -0.06369811608790       -0.03221370821548
C           35.71926822814217       -0.07237737665066       -0.03596692124913
C           37.06285210426758       -0.07870044169264       -0.03847499995619
C           38.29334474568198       -0.08184652207493       -0.04218632871708
C           39.63220933735183       -0.07971310797236       -0.04316496134529
C           40.86262217018217       -0.07370162927596       -0.03988236598543
C           42.20636409380639       -0.06457009266655       -0.03345191582590
C           43.43042546472106       -0.05288780333053       -0.02420400319787
Ni          29.65038616552650       -0.02604982869390       -0.01713679543929
C           26.21070133801215       -0.01343601296480        0.00999673344076
C           26.89499891181221        0.90106171929664        0.81689011349259
C           26.23336486008534        1.84981358840856        1.65798874745006
C           27.20360487916180        2.56424106526024        2.27714921426106
C           28.45292582011593        2.04628280263462        1.81149949379461
N           28.25273541506058        1.02305095698275        0.91407282023652
C           29.67740170525921        2.52666389658436        2.22498074428577
C           30.89172931137270        2.03682398742443        1.79295558729811
C           32.15198133712579        2.54531340545034        2.23920457707224
C           33.10709944211563        1.82034548514847        1.60889380569877
N           31.07021951486079        1.00976222350535        0.89542005182838
C           32.42537615599308        0.87453040747709        0.78052625478197
C           33.08994613843891       -0.05297017526079       -0.02777633406445
C           32.40586671153028       -0.96642279044001       -0.83581584089342
C           33.06755363852959       -1.91652643936999       -1.67542783995857
C           32.09735505835649       -2.61777533836416       -2.30949344804003
C           30.84800201508437       -2.09282685318310       -1.85180853490040
N           31.04806739054628       -1.07784321959423       -0.94518656807558
C           29.62350357839425       -2.56191607531271       -2.27816412215626
C           28.40919303170344       -2.07441925699895       -1.84354692571167
C           27.14896538734277       -2.58024444763866       -2.29278721299489
C           26.19384162809220       -1.86744788171361       -1.64873929309159
C           26.87552486946227       -0.92953661868580       -0.81142153736621
N           28.23061280557739       -1.05888517581623       -0.93294529119254
H           25.16310249222258        1.94304839069842        1.74883009145182
H           27.10272095671812        3.37021364799669        2.98642376241720
H           29.68597959643358        3.34206573844408        2.93917684294090
H           32.26993126080823        3.35240453767349        2.94456863374575
H           34.17929572159726        1.90406631189422        1.68492170799996
H           34.13781894179320       -2.01794598862376       -1.75694566650567
H           32.19828359179192       -3.41950082463508       -3.02355328585279
H           29.61497278841196       -3.36969859978575       -3.00096098875624
H           27.03102590136156       -3.37851844561915       -3.00811703404312
H           25.12165873434969       -1.95392898530294       -1.72169019390229

          :  Hamiltonian                  GFN1-xTB          :
         :: total energy            -228.236890929163 Eh    ::
         :: gradient norm              0.000572960062 Eh/a0 ::
         :: HOMO-LUMO gap              1.108227765394 eV    ::
         :: SCC energy              -232.130203025519 Eh    ::
         :: repulsion energy           3.997551890597 Eh    ::

    * Orbital Energies and Occupations

         #    Occupation            Energy/Eh            Energy/eV
      -------------------------------------------------------------
         1        2.0000           -0.7840822             -21.3360
       ...           ...                  ...                  ...
       201        2.0000           -0.3999207             -10.8824
       202        2.0000           -0.3999100             -10.8821
       203        2.0000           -0.3998535             -10.8806
       204        2.0000           -0.3995945             -10.8735
       205        2.0000           -0.3989798             -10.8568
       206        2.0000           -0.3989081             -10.8548
       207        2.0000           -0.3980563             -10.8317
       208        2.0000           -0.3979856             -10.8297
       209        2.0000           -0.3979312             -10.8283
       210        2.0000           -0.3978615             -10.8264
       211        2.0000           -0.3971984             -10.8083
       212        2.0000           -0.3921878             -10.6720
       213        2.0000           -0.3861688             -10.5082 (HOMO)
       214                         -0.3454422              -9.4000 (LUMO)
       215                         -0.3375458              -9.1851
       216                         -0.3333243              -9.0702
       217                         -0.3332750              -9.0689
       218                         -0.3324578              -9.0466
       219                         -0.3311666              -9.0115
       220                         -0.3311105              -9.0100
       221                         -0.3309250              -9.0049
       222                         -0.3307947              -9.0014
       223                         -0.3113821              -8.4731
       224                         -0.3035010              -8.2587
       ...                                ...                  ...
       443                          1.6022737              43.6001
      -------------------------------------------------------------
                  HL-Gap            0.0407266 Eh            1.1082 eV

Wiberg/Mayer (AO) data.
largest (>0.10) Wiberg bond orders for each atom

     #   Z sym  total        # sym  WBO       # sym  WBO       # sym  WBO
 ---------------------------------------------------------------------------
     1  28 Ni   3.011 --     7 N    0.664    25 N    0.664    19 N    0.661
                            12 N    0.661
     2   6 C    3.939 --    24 C    1.365     3 C    1.365    26 H    0.970
     3   6 C    3.923 --     2 C    1.365     7 N    1.218     4 C    1.170
     4   6 C    3.960 --     5 C    1.655     3 C    1.170    27 H    0.975
     5   6 C    3.962 --     4 C    1.655     6 C    1.171    28 H    0.975
     6   6 C    3.921 --     8 C    1.362     7 N    1.218     5 C    1.171
     7   7 N    3.406 --     3 C    1.218     6 C    1.218     1 Ni   0.664
     8   6 C    3.944 --     9 C    1.370     6 C    1.362    29 H    0.970
     9   6 C    3.915 --     8 C    1.370    12 N    1.202    10 C    1.177
    10   6 C    3.958 --    11 C    1.643     9 C    1.177    30 H    0.975
    11   6 C    3.961 --    10 C    1.643    13 C    1.186    31 H    0.973
    12   7 N    3.409 --    13 C    1.245     9 C    1.202     1 Ni   0.661
    13   6 C    3.903 --    14 C    1.263    12 N    1.245    11 C    1.186
    14   6 C    3.949 --    15 C    1.263    13 C    1.263    73 C    1.185
    15   6 C    3.903 --    14 C    1.263    19 N    1.245    16 C    1.186
    16   6 C    3.961 --    17 C    1.643    15 C    1.186    32 H    0.973
    17   6 C    3.958 --    16 C    1.643    18 C    1.177    33 H    0.975
    18   6 C    3.915 --    20 C    1.370    19 N    1.202    17 C    1.177
    19   7 N    3.409 --    15 C    1.245    18 C    1.202     1 Ni   0.661
    20   6 C    3.944 --    18 C    1.370    21 C    1.362    34 H    0.970
    21   6 C    3.921 --    20 C    1.362    25 N    1.218    22 C    1.171
    22   6 C    3.962 --    23 C    1.655    21 C    1.171    35 H    0.975
    23   6 C    3.960 --    22 C    1.655    24 C    1.170    36 H    0.975
    24   6 C    3.923 --     2 C    1.365    25 N    1.218    23 C    1.170
    25   7 N    3.406 --    24 C    1.218    21 C    1.218     1 Ni   0.664
    26   1 H    1.000 --     2 C    0.970
    27   1 H    0.997 --     4 C    0.975
    28   1 H    0.997 --     5 C    0.975
    29   1 H    1.000 --     8 C    0.970
    30   1 H    0.997 --    10 C    0.975
    31   1 H    1.002 --    11 C    0.973
    32   1 H    1.002 --    16 C    0.973
    33   1 H    0.997 --    17 C    0.975
    34   1 H    1.000 --    20 C    0.970
    35   1 H    0.997 --    22 C    0.975
    36   1 H    0.997 --    23 C    0.975
    37  28 Ni   3.011 --    43 N    0.664    61 N    0.664    55 N    0.661
                            48 N    0.661
    38   6 C    3.939 --    60 C    1.365    39 C    1.365    62 H    0.970
    39   6 C    3.923 --    38 C    1.365    43 N    1.218    40 C    1.170
    40   6 C    3.960 --    41 C    1.655    39 C    1.170    63 H    0.975
    41   6 C    3.962 --    40 C    1.655    42 C    1.171    64 H    0.975
    42   6 C    3.921 --    44 C    1.363    43 N    1.218    41 C    1.171
    43   7 N    3.406 --    39 C    1.218    42 C    1.218    37 Ni   0.664
    44   6 C    3.944 --    45 C    1.370    42 C    1.363    65 H    0.970
    45   6 C    3.916 --    44 C    1.370    48 N    1.202    46 C    1.177
    46   6 C    3.958 --    47 C    1.643    45 C    1.177    66 H    0.975
    47   6 C    3.961 --    46 C    1.643    49 C    1.186    67 H    0.973
    48   7 N    3.410 --    49 C    1.244    45 C    1.202    37 Ni   0.661
    49   6 C    3.903 --    50 C    1.264    48 N    1.244    47 C    1.186
    50   6 C    3.949 --    51 C    1.264    49 C    1.264    88 C    1.184
    51   6 C    3.903 --    50 C    1.264    55 N    1.244    52 C    1.186
    52   6 C    3.961 --    53 C    1.643    51 C    1.186    68 H    0.973
    53   6 C    3.958 --    52 C    1.643    54 C    1.177    69 H    0.975
    54   6 C    3.916 --    56 C    1.370    55 N    1.202    53 C    1.177
    55   7 N    3.410 --    51 C    1.244    54 C    1.202    37 Ni   0.661
    56   6 C    3.944 --    54 C    1.370    57 C    1.363    70 H    0.970
    57   6 C    3.921 --    56 C    1.363    61 N    1.218    58 C    1.171
    58   6 C    3.962 --    59 C    1.655    57 C    1.171    71 H    0.975
    59   6 C    3.960 --    58 C    1.655    60 C    1.170    72 H    0.975
    60   6 C    3.923 --    38 C    1.365    61 N    1.218    59 C    1.170
    61   7 N    3.406 --    60 C    1.218    57 C    1.218    37 Ni   0.664
    62   1 H    1.000 --    38 C    0.970
    63   1 H    0.997 --    40 C    0.975
    64   1 H    0.997 --    41 C    0.975
    65   1 H    1.000 --    44 C    0.970
    66   1 H    0.997 --    46 C    0.975
    67   1 H    1.002 --    47 C    0.973
    68   1 H    1.002 --    52 C    0.973
    69   1 H    0.997 --    53 C    0.975
    70   1 H    1.000 --    56 C    0.970
    71   1 H    0.997 --    58 C    0.975
    72   1 H    0.997 --    59 C    0.975
    73   6 C    3.878 --    74 C    2.446    14 C    1.185    76 C    0.187
    74   6 C    3.939 --    73 C    2.446    75 C    1.341
    75   6 C    3.894 --    76 C    2.341    74 C    1.341    78 C    0.183
    76   6 C    3.928 --    75 C    2.341    77 C    1.366    73 C    0.187
    77   6 C    3.927 --    78 C    2.340    76 C    1.366    80 C    0.187
    78   6 C    3.895 --    77 C    2.340    79 C    1.342    75 C    0.183
    79   6 C    3.936 --    80 C    2.444    78 C    1.342
    80   6 C    3.878 --    79 C    2.444    90 C    1.188    77 C    0.187
    81   6 C    3.878 --    82 C    2.445   102 C    1.186    84 C    0.187
    82   6 C    3.936 --    81 C    2.445    83 C    1.340
    83   6 C    3.894 --    84 C    2.342    82 C    1.340    86 C    0.183
    84   6 C    3.926 --    83 C    2.342    85 C    1.365    81 C    0.187
    85   6 C    3.928 --    86 C    2.343    84 C    1.365    88 C    0.187
    86   6 C    3.894 --    85 C    2.343    87 C    1.339    83 C    0.183
    87   6 C    3.939 --    88 C    2.448    86 C    1.339
    88   6 C    3.878 --    87 C    2.448    50 C    1.184    85 C    0.187
    89  28 Ni   2.996 --   113 N    0.660   107 N    0.660    95 N    0.660
                           100 N    0.660
    90   6 C    3.938 --    91 C    1.261   112 C    1.261    80 C    1.188
    91   6 C    3.903 --    90 C    1.261    95 N    1.246    92 C    1.187
    92   6 C    3.959 --    93 C    1.640    91 C    1.187   114 H    0.973
    93   6 C    3.958 --    92 C    1.640    94 C    1.179   115 H    0.975
    94   6 C    3.913 --    96 C    1.367    95 N    1.201    93 C    1.179
    95   7 N    3.404 --    91 C    1.246    94 C    1.201    89 Ni   0.660
    96   6 C    3.939 --    94 C    1.367    97 C    1.367   116 H    0.970
    97   6 C    3.913 --    96 C    1.367   100 N    1.201    98 C    1.179
    98   6 C    3.959 --    99 C    1.640    97 C    1.179   117 H    0.975
    99   6 C    3.959 --    98 C    1.640   101 C    1.187   118 H    0.973
   100   7 N    3.404 --   101 C    1.245    97 C    1.201    89 Ni   0.660
   101   6 C    3.903 --   102 C    1.262   100 N    1.245    99 C    1.187
   102   6 C    3.938 --   103 C    1.262   101 C    1.262    81 C    1.186
   103   6 C    3.903 --   102 C    1.262   107 N    1.245   104 C    1.187
   104   6 C    3.959 --   105 C    1.640   103 C    1.187   119 H    0.973
   105   6 C    3.959 --   104 C    1.640   106 C    1.179   120 H    0.975
   106   6 C    3.913 --   108 C    1.367   107 N    1.201   105 C    1.179
   107   7 N    3.404 --   103 C    1.245   106 C    1.201    89 Ni   0.660
   108   6 C    3.939 --   109 C    1.367   106 C    1.367   121 H    0.970
   109   6 C    3.913 --   108 C    1.367   113 N    1.201   110 C    1.179
   110   6 C    3.958 --   111 C    1.640   109 C    1.179   122 H    0.975
   111   6 C    3.959 --   110 C    1.640   112 C    1.187   123 H    0.973
   112   6 C    3.903 --    90 C    1.261   113 N    1.246   111 C    1.187
   113   7 N    3.404 --   112 C    1.246   109 C    1.201    89 Ni   0.660
   114   1 H    1.002 --    92 C    0.973
   115   1 H    0.997 --    93 C    0.975
   116   1 H    1.000 --    96 C    0.970
   117   1 H    0.997 --    98 C    0.975
   118   1 H    1.002 --    99 C    0.973
   119   1 H    1.002 --   104 C    0.973
   120   1 H    0.997 --   105 C    0.975
   121   1 H    1.000 --   108 C    0.970
   122   1 H    0.997 --   110 C    0.975
   123   1 H    1.002 --   111 C    0.973
 ---------------------------------------------------------------------------

           -------------------------------------------------
          | TOTAL ENERGY             -228.236890929163 Eh   |
          | GRADIENT NORM               0.000572960062 Eh/α |
          | HOMO-LUMO GAP               1.108227765394 eV   |
           -------------------------------------------------

 * finished run on 2022/07/30 at 02:15:44.197
