   * xtb version 6.5.1 (b24c23e) compiled by 'conda@728c89f4b128' on 2022-07-12
          program call               : xtb Cu_PhCHO_C2_3.xyz --gfn 1 --opt -T 48

   ID    Z sym.   atoms
    1   29 Cu     1, 61, 125
    2    6 C      2-6, 8-13, 15-19, 21-26, 28-33, 35-40, 62-66, 68-73, 75-79,
                  81-86, 88-93, 95-100, 121-124, 126-130, 132-137, 139-143,
                  145-150, 152-157, 159-164
    3    7 N      7, 20, 27, 41, 67, 80, 87, 101, 131, 144, 151, 165
    4    8 O      14, 34, 74, 94, 138, 158
    5    1 H      42-60, 102-120, 166-183
########################################################################
[WARNING] Please study the warnings concerning your input carefully
-1- prog_main_parseArguments: Unknown option '-T' provided
########################################################################

          :  Hamiltonian                  GFN1-xTB          :
 * total energy  :  -333.5280780 Eh     change       -0.6659207E-09 Eh
 * total energy  :  -333.8561154 Eh     change       -0.3280374E+00 Eh
 * total energy  :  -333.9874287 Eh     change       -0.1313133E+00 Eh
 * total energy  :  -334.0372976 Eh     change       -0.4986888E-01 Eh
 * total energy  :  -334.0538303 Eh     change       -0.1653269E-01 Eh
 * total energy  :  -334.0639273 Eh     change       -0.1009708E-01 Eh
 * total energy  :  -334.0699803 Eh     change       -0.6052996E-02 Eh
 * total energy  :  -334.0745604 Eh     change       -0.4580076E-02 Eh
 * total energy  :  -334.0774582 Eh     change       -0.2897764E-02 Eh
 * total energy  :  -334.0792388 Eh     change       -0.1780568E-02 Eh
 * total energy  :  -334.0870955 Eh     change       -0.5904845E-05 Eh
 * total energy  :  -334.0871124 Eh     change       -0.1694809E-04 Eh
 * total energy  :  -334.0871274 Eh     change       -0.1498873E-04 Eh
 * total energy  :  -334.0871422 Eh     change       -0.1474745E-04 Eh
 * total energy  :  -334.0871461 Eh     change       -0.3928393E-05 Eh
 * total energy  :  -334.0871550 Eh     change       -0.8880331E-05 Eh
 * total energy  :  -334.0871498 Eh     change        0.5206149E-05 Eh
 * total energy  :  -334.0871609 Eh     change       -0.1109342E-04 Eh
 * total energy  :  -334.0871632 Eh     change       -0.2386733E-05 Eh
   *** GEOMETRY OPTIMIZATION CONVERGED AFTER 70 ITERATIONS ***

 final structure:
================
183
 xtb: 6.5.1 (b24c23e)
Cu          34.55545737033004        0.01039476280090       -0.00232422154462
C           31.14646252014402        0.03237560029551       -0.05636342645089
C           31.77699082146060        1.25430627227861        0.12214595706092
C           31.09773732597355        2.49980809684557        0.33785275487473
C           32.05283019164300        3.45396031159807        0.46330136201856
C           33.32491597114320        2.80089709590396        0.31068011564116
N           33.12679429992266        1.46389537111809        0.12078755706911
C           34.56833841265905        3.43584468239110        0.35316307241623
C           34.58211771367503        4.90728592384075        0.52833430883803
C           35.21155283621689        5.47650395885412        1.64007073244191
C           35.22079668908960        6.84695874852882        1.81198144177087
C           34.60599811502188        7.68197406749138        0.87298123779064
C           34.63134598818366        9.14153504561226        1.07856066826489
O           35.15421172719417        9.67491667269831        2.02347392389768
C           33.98065090791795        7.11537072258371       -0.24030840203117
C           33.96697514460738        5.74213055084335       -0.40877947988923
C           35.80342684774890        2.79119676698689        0.24674429045626
C           37.07147512866175        3.46004812655500        0.18677495181170
C           38.02272117728614        2.49752097704977        0.08872010026202
N           36.00199283152816        1.43874905373528        0.16446150076362
C           37.34734623062860        1.23558666225303        0.08993188470756
C           37.99403182470131       -0.01220078202323        0.03810755147125
C           37.33511892661610       -1.25315187450302       -0.02420250333823
C           37.99906855799242       -2.52044510265685       -0.07145695991285
C           37.03834912812564       -3.47140505393476       -0.18622768562716
C           35.77465163866417       -2.79158830350256       -0.19351268342832
N           35.98745823179630       -1.44233961331901       -0.08990501168794
C           34.53418133687524       -3.41628787377706       -0.33899699747808
C           34.52394292523002       -4.89217561941278       -0.49096996730348
C           34.06721376605493       -5.47136070389276       -1.67787799090114
C           34.05704955553576       -6.84669159985516       -1.82830743856181
C           34.49784613083340       -7.67085898700787       -0.79017643945201
C           34.49341709805125       -9.13923500237731       -0.92323981226191
O           34.85840661819137       -9.89075518534251       -0.05579474394190
C           34.95112892707752       -7.09130274988542        0.39946437285262
C           34.96684241583603       -5.71751209669288        0.54649510236347
C           33.29996931816540       -2.76320939347316       -0.35384984057968
C           32.02127329077248       -3.41267877502723       -0.46007875363864
C           31.07515073637267       -2.44506512884922       -0.37866497317226
C           31.76599788036723       -1.19772271207807       -0.21584131987742
N           33.11376920763085       -1.41927706183861       -0.20641699877790
H           30.06143986536419        0.03761765004141       -0.05922517643929
H           30.02661311431623        2.61358236015331        0.39311553897587
H           31.91505998805753        4.50590357201355        0.65487270297601
H           35.67821767016576        4.83108904072191        2.37572429662173
H           35.70115487751497        7.29525710427871        2.67508682033190
H           34.12187020457868        9.72346346697166        0.28115406736572
H           33.50564141511106        7.75616359233023       -0.97612047504918
H           33.49267459812159        5.30672620558131       -1.28114104967720
H           37.21175252490833        4.52871710772551        0.19681074123921
H           39.08910490198688        2.62602009890085        0.00732388666698
H           39.06600707774669       -2.65949824940816       -0.02158866492164
H           37.17145491462443       -4.53794790323056       -0.26680765537937
H           33.73414987059577       -4.83314315901409       -2.48863376004276
H           33.70656861604993       -7.28785539811974       -2.75576267507741
H           34.11981285922185       -9.50698055065795       -1.90275916524356
H           35.28747679308547       -7.73947366221333        1.20158002753050
H           35.30788609150540       -5.27160353071862        1.47397682770398
H           31.87373309508901       -4.47513077203830       -0.56850175530461
H           30.00262972658224       -2.55250154145007       -0.41686797048082
Cu          56.39889110452108       -0.05530688269682       -0.02687736570668
C           59.80651559339130       -0.08478698205308       -0.09170913631828
C           59.17131533006695       -1.31692053078484       -0.11977479782378
C           59.84684019648159       -2.58286777895943       -0.14276479638609
C           58.88852032421638       -3.54189154716711       -0.13685530306359
C           57.61758641401678       -2.86910914395145       -0.11926051037187
N           57.82060884892353       -1.51960654855935       -0.10364634472029
C           56.37321198699508       -3.50211105904955       -0.07618892816260
C           56.36000548234917       -4.98490158188155       -0.09699760048288
C           55.84611400580124       -5.70510323997240        0.98557637244291
C           55.83156083523468       -7.08632906213878        0.96098024299463
C           56.32649794153005       -7.77978873676609       -0.14853378559163
C           56.29287979896935       -9.25348059207228       -0.15381867966264
O           55.85928741478079       -9.91630013643225        0.75364431737612
C           56.84124791481759       -7.06135819743662       -1.23037870845337
C           56.85984814132478       -5.67821512578820       -1.20275922870461
C           55.13992002568822       -2.84925899370348       -0.01532162467226
C           53.86408202371329       -3.50664803358927        0.00092472135016
C           52.91753531143773       -2.53527024016620        0.03527955189968
N           54.94883153202277       -1.49309026574854       -0.00329275817215
C           53.60408164267699       -1.27884537589850        0.02508206620295
C           52.96555453643471       -0.02652305598900        0.02442727820566
C           53.62481537645090        1.21476710723260        0.01285706475847
C           52.96060424813700        2.48234996436020       -0.03773560261535
C           53.92455323183099        3.43721983026828       -0.02911902231090
C           55.18780953094886        2.75809092525681        0.02840527369676
N           54.97317624589326        1.40561516702636        0.03954016506997
C           56.43317621505309        3.39059065757815        0.03928244193853
C           56.44666478099885        4.87251113979320        0.07735552942838
C           57.02647830324661        5.60216415731575       -0.96423230985860
C           57.04368440216099        6.98510573507474       -0.92682343625126
C           56.48619994794179        7.66670199679168        0.15761860540413
C           56.49953424395338        9.13944097270437        0.22601865213388
O           56.04095434670345        9.77068770646695        1.14334475004584
C           55.90608136009273        6.93695166308513        1.20052775082718
C           55.88348383885719        5.55627955782809        1.15923319357197
C           57.66734410532158        2.73632042132650        0.01820134393191
C           58.94988612344988        3.38425787309480        0.07696806099416
C           59.89113171773418        2.40941032391980        0.03325914865207
C           59.19323422973636        1.15771562082175       -0.04053754551654
N           57.84621251202990        1.38457553654337       -0.04141022205476
H           60.89153003937331       -0.09417008889757       -0.09776670519445
H           60.91817229317809       -2.70709418395771       -0.15390881903458
H           59.02326076916116       -4.61152947310634       -0.13080615470136
H           55.47246818348911       -5.17083683030956        1.85180407575293
H           55.43815237848087       -7.65252381236872        1.79841191612440
H           56.70464382138026       -9.71562008748168       -1.07636443044128
H           57.22518544556176       -7.59129064868604       -2.09606234654011
H           57.24783198200452       -5.12295855627157       -2.04935604945719
H           53.71359872876955       -4.57370058963365       -0.02164665110267
H           51.84685559599650       -2.65311429956760        0.06597084393629
H           51.89243496116052        2.61737166502228       -0.08631811688158
H           53.79569110471753        4.50636668509722       -0.07583226584294
H           57.44986898548139        5.07625418761179       -1.81260353144373
H           57.49144372932859        7.54363491257279       -1.74242870970965
H           56.97528695936972        9.63209822160625       -0.64872654968810
H           55.47807771991592        7.47456835214696        2.03982172225999
H           55.44431542085456        4.99296777760249        1.97487341939373
H           59.10351361786840        4.44842000352175        0.15579975546410
H           60.96439019202537        2.51363041648942        0.05679741211782
C           39.40586974514525       -0.01620443852018        0.04089848026222
C           40.62343705665420       -0.01492774533477        0.03932129474335
C           50.33771856016607       -0.01136260499564        0.02200015348577
C           51.55459462558500       -0.01598505989789        0.02426812179885
Cu          45.48279154081146       -0.01036723382511        0.02714352328837
C           42.03495417656263       -0.01464350088407        0.04042153119132
C           42.68796108914207        1.16771451275101        0.43391230519132
C           42.01683965545686        2.37554819849033        0.80843219055715
C           42.97483079040982        3.28913464431299        1.10565366479090
C           44.24183413853297        2.63853630926115        0.93156558822757
N           44.03490684980142        1.34908446783794        0.51942846385416
C           45.48389029933465        3.24318607475680        1.13573270472180
C           45.48790077784815        4.65421975156229        1.59307159656447
C           46.05008952123126        5.64981081676126        0.78825682411676
C           46.04633385450246        6.96741983890256        1.20326801677418
C           45.48719087426616        7.31902019093979        2.43626156000970
C           45.49512596648106        8.73290577411881        2.85543942311061
O           45.95875307025079        9.62400402948170        2.19131177826409
C           44.93184598240269        6.32422831223716        3.24443325703563
C           44.92982428025278        5.00556055700862        2.82497017117887
C           46.72540942920885        2.63383048273476        0.94167355381532
C           47.99088184084138        3.23763426617973        1.24777706077001
C           48.94854206939634        2.32456147732247        0.94656618384567
N           46.93111550379947        1.36580087269237        0.46958768220710
C           48.27686942632692        1.15935002928698        0.45507059416382
C           48.92725750209372       -0.00868512582265        0.02046891513787
C           48.27551648401152       -1.17493382638156       -0.41764688571146
C           48.94580773480904       -2.33356094090919       -0.92569333276897
C           47.98799614739286       -3.24527163421703       -1.23062722776645
C           46.72371897432121       -2.64784234795789       -0.90845513282676
N           46.93011088107217       -1.38391651262775       -0.42566830645213
C           45.48223608627133       -3.25939517664188       -1.09649352891786
C           45.48586720051009       -4.66432838290302       -1.57116350612327
C           46.06936306545182       -5.66636426894335       -0.79072168171709
C           46.07128354370331       -6.98050042178712       -1.22313717257369
C           45.49495809455070       -7.31785475263888       -2.45011122103719
C           45.48609431555261       -8.70989818786969       -2.93584260816670
O           45.00546567591972       -9.04825924156469       -3.98711071233529
C           44.91557037420380       -6.31449074828475       -3.23389037370667
C           44.90836253997377       -5.00336301959142       -2.79835176146068
C           44.24069719751577       -2.65982134533920       -0.87554060709020
C           42.97403343602950       -3.31405987847343       -1.03787864862763
C           42.01663895827648       -2.40435505238993       -0.72760378873386
C           42.68792332996718       -1.19531692829064       -0.35760781823093
N           44.03447185427239       -1.37265128109900       -0.45611225698960
H           40.94777584194922        2.50391767171282        0.83716026588254
H           42.83773715669560        4.31513709601985        1.40609604299473
H           46.47433844834877        5.38106057443050       -0.17261632758465
H           46.47326945743265        7.74690789110140        0.58136078666643
H           45.03170941192347        8.91711435658855        3.84801405482765
H           44.50096032498764        6.58778261806520        4.20487527870776
H           44.50791944717374        4.23398532387158        3.45912789737279
H           48.12478590372603        4.22549905565035        1.65776000689340
H           50.01626479924719        2.42004396362714        1.05818807559507
H           50.01249617367669       -2.42521656374812       -1.04834370901823
H           48.12154619530758       -4.22749158936878       -1.65408670952196
H           46.50775609522842       -5.40839787860414        0.16679963810766
H           46.52046773971240       -7.75295496083574       -0.60741884349087
H           45.96540254962623       -9.43671586771328       -2.24596869008900
H           44.47465712293759       -6.58524048393313       -4.18726531793865
H           44.46923131558631       -4.22624133673957       -3.41368263040328
H           42.83685681875902       -4.33968697022842       -1.33941753985970
H           40.94781061426501       -2.53621902784053       -0.74404378484739

          :  Hamiltonian                  GFN1-xTB          :
         :: total energy            -334.087163247002 Eh    ::
         :: gradient norm              0.000514590610 Eh/a0 ::
         :: HOMO-LUMO gap              0.000344275217 eV    ::
         :: SCC energy              -339.034011960857 Eh    ::
         :: repulsion energy           5.117805509205 Eh    ::

    * Orbital Energies and Occupations

         #    Occupation            Energy/Eh            Energy/eV
      -------------------------------------------------------------
         1        2.0000           -0.7929818             -21.5781
       ...           ...                  ...                  ...
       293        2.0000           -0.4218071             -11.4780
       294        2.0000           -0.4217716             -11.4770
       295        2.0000           -0.4213364             -11.4651
       296        2.0000           -0.4212146             -11.4618
       297        2.0000           -0.4210414             -11.4571
       298        2.0000           -0.4109980             -11.1838
       299        2.0000           -0.4095302             -11.1439
       300        2.0000           -0.4093839             -11.1399
       301        2.0000           -0.4093607             -11.1393
       302        2.0000           -0.4020581             -10.9406
       303        2.0000           -0.3918875             -10.6638
       304        1.0278           -0.3694718             -10.0538
       305        0.9890           -0.3693889             -10.0516 (HOMO)
       306        0.9831           -0.3693763             -10.0512 (LUMO)
       307        0.0000           -0.3552692              -9.6674
       308                         -0.3448169              -9.3829
       309                         -0.3446930              -9.3796
       310                         -0.3443620              -9.3706
       311                         -0.3441271              -9.3642
       312                         -0.3330789              -9.0635
       313                         -0.3283430              -8.9347
       314                         -0.3274188              -8.9095
       315                         -0.3266830              -8.8895
       316                         -0.3231585              -8.7936
       ...                                ...                  ...
       635                          1.3259027              36.0796
      -------------------------------------------------------------
                  HL-Gap            0.0000127 Eh            0.0003 eV

Wiberg/Mayer (AO) data.
largest (>0.10) Wiberg bond orders for each atom

     #   Z sym  total        # sym  WBO       # sym  WBO       # sym  WBO
 ---------------------------------------------------------------------------
     1  29 Cu   2.191 --    41 N    0.506     7 N    0.505    20 N    0.504
                            27 N    0.503
     2   6 C    3.930 --    40 C    1.362     3 C    1.362    42 H    0.971
     3   6 C    3.915 --     2 C    1.362     7 N    1.229     4 C    1.170
     4   6 C    3.955 --     5 C    1.657     3 C    1.170    43 H    0.975
     5   6 C    3.958 --     4 C    1.657     6 C    1.171    44 H    0.973
     6   6 C    3.913 --     8 C    1.318     7 N    1.239     5 C    1.171
     7   7 N    3.243 --     6 C    1.239     3 C    1.229     1 Cu   0.505
     8   6 C    3.933 --    17 C    1.321     6 C    1.318     9 C    1.034
     9   6 C    3.986 --    16 C    1.383    10 C    1.379     8 C    1.034
    10   6 C    3.987 --    11 C    1.472     9 C    1.379    45 H    0.972
    11   6 C    3.988 --    10 C    1.472    12 C    1.369    46 H    0.968
                            16 C    0.100
    12   6 C    3.983 --    15 C    1.378    11 C    1.369    13 C    1.049
    13   6 C    3.864 --    14 O    1.808    12 C    1.049    47 H    0.942
    14   8 O    2.003 --    13 C    1.808
    15   6 C    3.993 --    16 C    1.465    12 C    1.378    48 H    0.971
    16   6 C    3.987 --    15 C    1.465     9 C    1.383    49 H    0.972
                            11 C    0.100
    17   6 C    3.908 --     8 C    1.321    20 N    1.225    18 C    1.180
    18   6 C    3.954 --    19 C    1.640    17 C    1.180    50 H    0.973
    19   6 C    3.956 --    18 C    1.640    21 C    1.188    51 H    0.967
    20   7 N    3.247 --    21 C    1.252    17 C    1.225     1 Cu   0.504
    21   6 C    3.901 --    22 C    1.264    20 N    1.252    19 C    1.188
    22   6 C    3.940 --    23 C    1.264    21 C    1.264   121 C    1.175
    23   6 C    3.900 --    22 C    1.264    27 N    1.253    24 C    1.187
    24   6 C    3.957 --    25 C    1.642    23 C    1.187    52 H    0.966
    25   6 C    3.954 --    24 C    1.642    26 C    1.179    53 H    0.973
    26   6 C    3.908 --    28 C    1.324    27 N    1.223    25 C    1.179
    27   7 N    3.247 --    23 C    1.253    26 C    1.223     1 Cu   0.503
    28   6 C    3.932 --    26 C    1.324    37 C    1.320    29 C    1.028
    29   6 C    3.986 --    30 C    1.385    36 C    1.383    28 C    1.028
    30   6 C    3.988 --    31 C    1.465    29 C    1.385    54 H    0.972
                            35 C    0.101
    31   6 C    3.993 --    30 C    1.465    32 C    1.379    55 H    0.971
                            36 C    0.100
    32   6 C    3.984 --    31 C    1.379    35 C    1.370    33 C    1.049
    33   6 C    3.864 --    34 O    1.808    32 C    1.049    56 H    0.942
    34   8 O    2.004 --    33 C    1.808
    35   6 C    3.988 --    36 C    1.470    32 C    1.370    57 H    0.968
                            30 C    0.101
    36   6 C    3.988 --    35 C    1.470    29 C    1.383    58 H    0.972
                            31 C    0.100
    37   6 C    3.913 --    28 C    1.320    41 N    1.239    38 C    1.171
    38   6 C    3.958 --    39 C    1.658    37 C    1.171    59 H    0.973
    39   6 C    3.955 --    38 C    1.658    40 C    1.169    60 H    0.975
    40   6 C    3.915 --     2 C    1.362    41 N    1.229    39 C    1.169
    41   7 N    3.244 --    37 C    1.239    40 C    1.229     1 Cu   0.506
    42   1 H    1.001 --     2 C    0.971
    43   1 H    0.997 --     4 C    0.975
    44   1 H    1.004 --     5 C    0.973
    45   1 H    1.004 --    10 C    0.972
    46   1 H    1.005 --    11 C    0.968
    47   1 H    1.010 --    13 C    0.942
    48   1 H    1.000 --    15 C    0.971
    49   1 H    1.004 --    16 C    0.972
    50   1 H    1.004 --    18 C    0.973
    51   1 H    1.007 --    19 C    0.967
    52   1 H    1.007 --    24 C    0.966
    53   1 H    1.004 --    25 C    0.973
    54   1 H    1.004 --    30 C    0.972
    55   1 H    1.000 --    31 C    0.971
    56   1 H    1.010 --    33 C    0.942
    57   1 H    1.005 --    35 C    0.968
    58   1 H    1.004 --    36 C    0.972
    59   1 H    1.004 --    38 C    0.973
    60   1 H    0.997 --    39 C    0.975
    61  29 Cu   2.187 --   101 N    0.505    67 N    0.505    87 N    0.503
                            80 N    0.503
    62   6 C    3.930 --    63 C    1.362   100 C    1.362   102 H    0.971
    63   6 C    3.915 --    62 C    1.362    67 N    1.229    64 C    1.169
    64   6 C    3.955 --    65 C    1.657    63 C    1.169   103 H    0.975
    65   6 C    3.958 --    64 C    1.657    66 C    1.171   104 H    0.973
    66   6 C    3.913 --    68 C    1.319    67 N    1.240    65 C    1.171
    67   7 N    3.243 --    66 C    1.240    63 C    1.229    61 Cu   0.505
    68   6 C    3.933 --    77 C    1.323    66 C    1.319    69 C    1.030
    69   6 C    3.985 --    76 C    1.384    70 C    1.381    68 C    1.030
    70   6 C    3.988 --    71 C    1.471    69 C    1.381   105 H    0.972
    71   6 C    3.988 --    70 C    1.471    72 C    1.370   106 H    0.968
                            76 C    0.100
    72   6 C    3.984 --    75 C    1.378    71 C    1.370    73 C    1.050
    73   6 C    3.864 --    74 O    1.807    72 C    1.050   107 H    0.942
    74   8 O    2.003 --    73 C    1.807
    75   6 C    3.993 --    76 C    1.465    72 C    1.378   108 H    0.971
    76   6 C    3.988 --    75 C    1.465    69 C    1.384   109 H    0.972
                            71 C    0.100
    77   6 C    3.908 --    68 C    1.323    80 N    1.224    78 C    1.179
    78   6 C    3.954 --    79 C    1.642    77 C    1.179   110 H    0.973
    79   6 C    3.957 --    78 C    1.642    81 C    1.186   111 H    0.969
    80   7 N    3.247 --    81 C    1.254    77 C    1.224    61 Cu   0.503
    81   6 C    3.901 --    82 C    1.265    80 N    1.254    79 C    1.186
    82   6 C    3.940 --    83 C    1.265    81 C    1.265   124 C    1.174
    83   6 C    3.901 --    82 C    1.265    87 N    1.253    84 C    1.186
    84   6 C    3.957 --    85 C    1.642    83 C    1.186   112 H    0.970
    85   6 C    3.954 --    84 C    1.642    86 C    1.179   113 H    0.973
    86   6 C    3.908 --    88 C    1.323    87 N    1.225    85 C    1.179
    87   7 N    3.247 --    83 C    1.253    86 C    1.225    61 Cu   0.503
    88   6 C    3.933 --    86 C    1.323    97 C    1.318    89 C    1.032
    89   6 C    3.986 --    90 C    1.383    96 C    1.381    88 C    1.032
    90   6 C    3.987 --    91 C    1.465    89 C    1.383   114 H    0.972
                            95 C    0.100
    91   6 C    3.993 --    90 C    1.465    92 C    1.378   115 H    0.971
    92   6 C    3.983 --    91 C    1.378    95 C    1.370    93 C    1.049
    93   6 C    3.864 --    94 O    1.809    92 C    1.049   116 H    0.942
    94   8 O    2.004 --    93 C    1.809
    95   6 C    3.988 --    96 C    1.471    92 C    1.370   117 H    0.968
                            90 C    0.100
    96   6 C    3.987 --    95 C    1.471    89 C    1.381   118 H    0.972
    97   6 C    3.913 --    88 C    1.318   101 N    1.240    98 C    1.171
    98   6 C    3.958 --    99 C    1.657    97 C    1.171   119 H    0.973
    99   6 C    3.955 --    98 C    1.657   100 C    1.170   120 H    0.975
   100   6 C    3.915 --    62 C    1.362   101 N    1.229    99 C    1.170
   101   7 N    3.244 --    97 C    1.240   100 C    1.229    61 Cu   0.505
   102   1 H    1.001 --    62 C    0.971
   103   1 H    0.997 --    64 C    0.975
   104   1 H    1.004 --    65 C    0.973
   105   1 H    1.004 --    70 C    0.972
   106   1 H    1.005 --    71 C    0.968
   107   1 H    1.010 --    73 C    0.942
   108   1 H    1.000 --    75 C    0.971
   109   1 H    1.004 --    76 C    0.972
   110   1 H    1.004 --    78 C    0.973
   111   1 H    1.006 --    79 C    0.969
   112   1 H    1.005 --    84 C    0.970
   113   1 H    1.004 --    85 C    0.973
   114   1 H    1.004 --    90 C    0.972
   115   1 H    1.000 --    91 C    0.971
   116   1 H    1.010 --    93 C    0.942
   117   1 H    1.005 --    95 C    0.968
   118   1 H    1.004 --    96 C    0.972
   119   1 H    1.004 --    98 C    0.973
   120   1 H    0.997 --    99 C    0.975
   121   6 C    3.933 --   122 C    2.582    22 C    1.175
   122   6 C    3.936 --   121 C    2.582   126 C    1.177
   123   6 C    3.936 --   124 C    2.582   146 C    1.175
   124   6 C    3.933 --   123 C    2.582    82 C    1.174
   125  29 Cu   2.159 --   131 N    0.498   165 N    0.498   144 N    0.497
                           151 N    0.497
   126   6 C    3.929 --   164 C    1.262   127 C    1.262   122 C    1.177
   127   6 C    3.902 --   126 C    1.262   131 N    1.257   128 C    1.187
   128   6 C    3.955 --   129 C    1.641   127 C    1.187   166 H    0.967
   129   6 C    3.955 --   128 C    1.641   130 C    1.180   167 H    0.973
   130   6 C    3.907 --   132 C    1.322   131 N    1.224   129 C    1.180
   131   7 N    3.240 --   127 C    1.257   130 C    1.224   125 Cu   0.498
   132   6 C    3.928 --   130 C    1.322   141 C    1.321   133 C    1.030
   133   6 C    3.986 --   140 C    1.384   134 C    1.381   132 C    1.030
   134   6 C    3.987 --   135 C    1.471   133 C    1.381   168 H    0.972
                           139 C    0.100
   135   6 C    3.988 --   134 C    1.471   136 C    1.370   169 H    0.968
                           140 C    0.101
   136   6 C    3.983 --   139 C    1.379   135 C    1.370   137 C    1.048
   137   6 C    3.864 --   138 O    1.810   136 C    1.048   170 H    0.942
   138   8 O    2.005 --   137 C    1.810
   139   6 C    3.993 --   140 C    1.464   136 C    1.379   171 H    0.971
                           134 C    0.100
   140   6 C    3.988 --   139 C    1.464   133 C    1.384   172 H    0.972
                           135 C    0.101
   141   6 C    3.907 --   132 C    1.321   144 N    1.226   142 C    1.180
   142   6 C    3.955 --   143 C    1.641   141 C    1.180   173 H    0.973
   143   6 C    3.955 --   142 C    1.641   145 C    1.187   174 H    0.970
   144   7 N    3.240 --   145 C    1.256   141 C    1.226   125 Cu   0.497
   145   6 C    3.902 --   146 C    1.263   144 N    1.256   143 C    1.187
   146   6 C    3.929 --   145 C    1.263   147 C    1.263   123 C    1.175
   147   6 C    3.902 --   146 C    1.263   151 N    1.256   148 C    1.187
   148   6 C    3.955 --   149 C    1.640   147 C    1.187   175 H    0.969
   149   6 C    3.955 --   148 C    1.640   150 C    1.180   176 H    0.973
   150   6 C    3.907 --   152 C    1.320   151 N    1.226   149 C    1.180
   151   7 N    3.240 --   147 C    1.256   150 C    1.226   125 Cu   0.497
   152   6 C    3.928 --   161 C    1.322   150 C    1.320   153 C    1.031
   153   6 C    3.986 --   154 C    1.383   160 C    1.381   152 C    1.031
   154   6 C    3.987 --   155 C    1.465   153 C    1.383   177 H    0.972
                           159 C    0.101
   155   6 C    3.993 --   154 C    1.465   156 C    1.378   178 H    0.971
   156   6 C    3.983 --   155 C    1.378   159 C    1.370   157 C    1.049
   157   6 C    3.864 --   158 O    1.808   156 C    1.049   179 H    0.942
   158   8 O    2.004 --   157 C    1.808
   159   6 C    3.988 --   160 C    1.470   156 C    1.370   180 H    0.968
                           154 C    0.101
   160   6 C    3.987 --   159 C    1.470   153 C    1.381   181 H    0.972
   161   6 C    3.907 --   152 C    1.322   165 N    1.224   162 C    1.180
   162   6 C    3.955 --   163 C    1.641   161 C    1.180   182 H    0.973
   163   6 C    3.955 --   162 C    1.641   164 C    1.187   183 H    0.966
   164   6 C    3.902 --   126 C    1.262   165 N    1.257   163 C    1.187
   165   7 N    3.240 --   164 C    1.257   161 C    1.224   125 Cu   0.498
   166   1 H    1.007 --   128 C    0.967
   167   1 H    1.004 --   129 C    0.973
   168   1 H    1.004 --   134 C    0.972
   169   1 H    1.005 --   135 C    0.968
   170   1 H    1.010 --   137 C    0.942
   171   1 H    1.000 --   139 C    0.971
   172   1 H    1.004 --   140 C    0.972
   173   1 H    1.004 --   142 C    0.973
   174   1 H    1.005 --   143 C    0.970
   175   1 H    1.006 --   148 C    0.969
   176   1 H    1.004 --   149 C    0.973
   177   1 H    1.004 --   154 C    0.972
   178   1 H    1.000 --   155 C    0.971
   179   1 H    1.010 --   157 C    0.942
   180   1 H    1.005 --   159 C    0.968
   181   1 H    1.004 --   160 C    0.972
   182   1 H    1.004 --   162 C    0.973
   183   1 H    1.007 --   163 C    0.966
 ---------------------------------------------------------------------------

           -------------------------------------------------
          | TOTAL ENERGY             -334.087163247002 Eh   |
          | GRADIENT NORM               0.000514590610 Eh/α |
          | HOMO-LUMO GAP               0.000344275217 eV   |
           -------------------------------------------------

 * finished run on 2022/07/30 at 06:09:31.353
