   * xtb version 6.4.1 (bd6e46d) compiled by 'conda@4901f00b25ba' on 2021-06-10
          program call               : xtb Zn_TPP.xyz --gfn 2 --opt
          number of atoms            :                    77
          number of electrons        :                   226
          charge                     :                     0
          spin                       :                   0.0

   ID    Z sym.   atoms
    1   30 Zn     1
    2    6 C      2-23, 25-34, 36-47
    3    7 N      24, 35, 48, 49
    4    1 H      50-77

          :  Hamiltonian                  GFN2-xTB          :
 * total energy  :  -120.7415383 Eh     change       -0.7957794E-09 Eh
 * total energy  :  -120.7839614 Eh     change       -0.4242311E-01 Eh
 * total energy  :  -120.8046078 Eh     change       -0.2064639E-01 Eh
 * total energy  :  -120.8096895 Eh     change       -0.5081746E-02 Eh
 * total energy  :  -120.8130511 Eh     change       -0.3361626E-02 Eh
 * total energy  :  -120.8143866 Eh     change       -0.1335404E-02 Eh
 * total energy  :  -120.8152090 Eh     change       -0.8224797E-03 Eh
 * total energy  :  -120.8159371 Eh     change       -0.7280517E-03 Eh
 * total energy  :  -120.8166111 Eh     change       -0.6740499E-03 Eh
 * total energy  :  -120.8171636 Eh     change       -0.5525024E-03 Eh
 * total energy  :  -120.8185794 Eh     change       -0.2079344E-04 Eh
 * total energy  :  -120.8186104 Eh     change       -0.3096324E-04 Eh
 * total energy  :  -120.8186178 Eh     change       -0.7425304E-05 Eh
 * total energy  :  -120.8186317 Eh     change       -0.1386193E-04 Eh
 * total energy  :  -120.8186387 Eh     change       -0.7022152E-05 Eh
 * total energy  :  -120.8186514 Eh     change       -0.1268620E-04 Eh
 * total energy  :  -120.8186600 Eh     change       -0.8584094E-05 Eh
 * total energy  :  -120.8186657 Eh     change       -0.5735084E-05 Eh
 * total energy  :  -120.8186697 Eh     change       -0.3967192E-05 Eh
   *** GEOMETRY OPTIMIZATION CONVERGED AFTER 30 ITERATIONS ***

 final structure:
================
77
 xtb: 6.4.1 (bd6e46d)
Zn       -0.08865631611731    0.17073609334365    0.01345297435920
C        -3.48119493065525    0.63820097873916    0.08233357085199
C        -4.94570735503237    0.83853826685408    0.11852585788204
C        -5.58944270809469    1.53663097294284   -0.89889632152676
C        -6.95972691426421    1.72053676399467   -0.86422993714417
C        -7.70358468191732    1.21583547764358    0.18929973707622
C        -7.07053267957698    0.52241895054598    1.20733112779262
C        -5.70127330525879    0.33141746540369    1.17158176634574
C        -3.00827638937222   -0.67153474359114    0.01068498188372
C        -3.85000129787278   -1.82786366572351   -0.11848780586735
C        -3.03260629207105   -2.90660553962472   -0.13788610002033
C        -1.68963706238434   -2.41198303274213   -0.01816899240054
C        -0.55570596153174   -3.22233118010117    0.02704961276252
C        -0.75722077653842   -4.68700300382733    0.02953510369219
C        -0.25464294461507   -5.47108099385958   -1.00476605153731
C        -0.44713063272759   -6.84061250589047   -1.00324455673948
C        -1.13812221254384   -7.44552397836620    0.03340566633645
C        -1.63855467291334   -6.67322453161701    1.06836941974789
C        -1.45253144407128   -5.30283574206004    1.06610554489572
C         0.75492680140258   -2.74833603446068    0.07401409261169
C         1.91292885887457   -3.58658074391328    0.21073248004645
C         2.99145679908924   -2.76870522717773    0.20045685173652
C         2.49508759831102   -1.42896383855121    0.05524452701398
N         1.13533903551639   -1.44376456520396    0.00559772161240
C         3.30394273688403   -0.29580242226422   -0.02280204218398
C         4.76891703258101   -0.49496354606910   -0.03151072925788
C         5.37951666707552   -1.21240883347482   -1.05597297777512
C         6.75049393820083   -1.39413640306861   -1.06376924074232
C         7.52858132071683   -0.86733893971066   -0.04637921982289
C         6.92884641953953   -0.15450561677261    0.97841843033804
C         5.55877791102058    0.03371219484347    0.98528266679844
C         2.82849581185786    1.01316251875095   -0.09593052094205
C         3.66506003477242    2.16743169632441   -0.26974908901344
C         2.84706971558440    3.24584723982278   -0.27794054436969
N         1.52457142827029    1.39513936089450   -0.02302977742943
C         1.50901894841495    2.75339982048260   -0.10578318360698
C         0.37692015492456    3.56441660510954   -0.03562930850866
C         0.57558511580412    5.02896361803296   -0.07018409464247
C         1.30821655384199    5.66909337942196    0.92505245965675
C         1.49062570411773    7.03957508489982    0.88933260878916
C         0.94907561538193    7.78761964812768   -0.14271816656865
C         0.22027899824143    7.15846613532436   -1.13823077792754
C         0.03161863335651    5.78897335968050   -1.10166007436000
C        -0.93115920846609    3.09103655648091    0.06358877123106
C        -2.08421342353567    3.93121430083329    0.22783228467932
C        -3.16222142723746    3.11339214948954    0.26424074585430
C        -2.67038410824922    1.77192082158833    0.12007400086946
N        -1.31307895802137    1.78582448571776    0.02546643765097
N        -1.70255166021162   -1.05273450294088    0.04516989311529
H        -5.00833481467014    1.92400837883382   -1.72325997823353
H        -7.44931989232292    2.25951280098096   -1.66230372897725
H        -8.77325567600140    1.36229960644911    0.21681427736635
H        -7.64601106654288    0.12900392811032    2.03265388540506
H        -5.20477257017452   -0.20396567755951    1.96794043993062
H        -4.91908739797539   -1.80770398300090   -0.20217795041697
H        -3.30434148354176   -3.93898195058982   -0.24101235923606
H         0.27808001972961   -4.99673686150636   -1.81628819492304
H        -0.05700059672748   -7.43840839543757   -1.81416254272372
H        -1.28607550070301   -8.51534063014684    0.03480391222712
H        -2.17570948324318   -7.14063997202197    1.88085671878337
H        -1.83601270501808   -4.69966438055400    1.87633939311510
H         1.89443767879478   -4.65343759691603    0.31919126849031
H         4.02492455706834   -3.03791644299447    0.29907079284084
H         4.77192727337036   -1.61626507960597   -1.85288905619025
H         7.21388959023948   -1.94841228809363   -1.86700356760639
H         8.59887338170252   -1.01166828275805   -0.05222158084826
H         7.53111998829789    0.25626843279780    1.77571512011554
H         5.08849030166586    0.58385600021613    1.78748901189010
H         4.73073455077107    2.14620369437354   -0.38899550907372
H         3.11509920012336    4.27645983556340   -0.40547859563363
H         1.72373385909651    5.08521198964247    1.73361385042622
H         2.05730017599319    7.52610614926867    1.66991790576829
H         1.09437698876691    8.85742625857354   -0.17108037112588
H        -0.20240989194342    7.73713866277327   -1.94668889018993
H        -0.53068063352061    5.29546988032036   -1.88115390040983
H        -2.06240228901746    4.99933264507149    0.32222639878508
H        -4.19202603471836    3.38365392392976    0.39336042720187

          :  Hamiltonian                  GFN2-xTB          :
         :: total energy            -120.818669664395 Eh    ::
         :: gradient norm              0.000307984640 Eh/a0 ::
         :: HOMO-LUMO gap              1.598943650332 eV    ::
         :: SCC energy              -123.043525204635 Eh    ::
         :: -> dispersion             -0.119699598297 Eh    ::
         :: repulsion energy           2.225494165365 Eh    ::

    * Orbital Energies and Occupations

         #    Occupation            Energy/Eh            Energy/eV
      -------------------------------------------------------------
         1        2.0000           -0.6610811             -17.9889
       ...           ...                  ...                  ...
       101        2.0000           -0.4059891             -11.0475
       102        2.0000           -0.4050977             -11.0233
       103        2.0000           -0.4050888             -11.0230
       104        2.0000           -0.4016055             -10.9282
       105        2.0000           -0.3958642             -10.7720
       106        2.0000           -0.3958401             -10.7714
       107        2.0000           -0.3955453             -10.7633
       108        2.0000           -0.3950011             -10.7485
       109        2.0000           -0.3945847             -10.7372
       110        2.0000           -0.3945638             -10.7366
       111        2.0000           -0.3808910             -10.3646
       112        2.0000           -0.3630512              -9.8791
       113        2.0000           -0.3511653              -9.5557 (HOMO)
       114                         -0.2924052              -7.9567 (LUMO)
       115                         -0.2923696              -7.9558
       116                         -0.2545093              -6.9256
       117                         -0.2250483              -6.1239
       118                         -0.2241606              -6.0997
       119                         -0.2241247              -6.0987
       120                         -0.2241182              -6.0986
       121                         -0.2239517              -6.0940
       122                         -0.2231822              -6.0731
       123                         -0.2231605              -6.0725
       124                         -0.2189675              -5.9584
       ...                                ...                  ...
       224                          0.7253145              19.7368
      -------------------------------------------------------------
                  HL-Gap            0.0587601 Eh            1.5989 eV

     #   Z          covCN         q      C6AA      α(0)
     1  30 Zn       3.044     0.243   122.318    21.604
     2   6 C        2.960    -0.010    28.261     8.720
     3   6 C        2.983     0.017    27.634     8.623
     4   6 C        2.924    -0.031    28.771     8.796
     5   6 C        2.919    -0.029    28.727     8.789
     6   6 C        2.920    -0.031    28.772     8.796
     7   6 C        2.919    -0.029    28.727     8.789
     8   6 C        2.924    -0.031    28.770     8.796
     9   6 C        3.149     0.071    26.141     8.363
    10   6 C        3.018    -0.052    29.265     8.874
    11   6 C        3.018    -0.052    29.266     8.874
    12   6 C        3.149     0.071    26.141     8.363
    13   6 C        2.960    -0.010    28.262     8.720
    14   6 C        2.983     0.017    27.635     8.623
    15   6 C        2.924    -0.031    28.770     8.796
    16   6 C        2.919    -0.029    28.727     8.789
    17   6 C        2.920    -0.031    28.772     8.796
    18   6 C        2.919    -0.029    28.727     8.789
    19   6 C        2.924    -0.031    28.771     8.796
    20   6 C        3.149     0.071    26.141     8.363
    21   6 C        3.018    -0.052    29.266     8.874
    22   6 C        3.018    -0.052    29.267     8.874
    23   6 C        3.149     0.071    26.142     8.364
    24   7 N        2.633    -0.181    24.923     7.414
    25   6 C        2.960    -0.010    28.262     8.720
    26   6 C        2.983     0.017    27.635     8.623
    27   6 C        2.924    -0.031    28.771     8.796
    28   6 C        2.919    -0.029    28.728     8.789
    29   6 C        2.920    -0.031    28.772     8.796
    30   6 C        2.919    -0.029    28.727     8.789
    31   6 C        2.924    -0.031    28.770     8.796
    32   6 C        3.149     0.071    26.141     8.363
    33   6 C        3.018    -0.052    29.266     8.874
    34   6 C        3.018    -0.052    29.267     8.874
    35   7 N        2.633    -0.181    24.921     7.414
    36   6 C        3.149     0.071    26.143     8.364
    37   6 C        2.960    -0.010    28.262     8.720
    38   6 C        2.983     0.017    27.635     8.623
    39   6 C        2.924    -0.031    28.771     8.796
    40   6 C        2.919    -0.029    28.728     8.789
    41   6 C        2.920    -0.031    28.771     8.796
    42   6 C        2.919    -0.029    28.727     8.789
    43   6 C        2.925    -0.031    28.770     8.796
    44   6 C        3.149     0.071    26.140     8.363
    45   6 C        3.018    -0.052    29.266     8.874
    46   6 C        3.018    -0.052    29.267     8.874
    47   6 C        3.149     0.071    26.140     8.363
    48   7 N        2.633    -0.181    24.923     7.415
    49   7 N        2.633    -0.181    24.920     7.414
    50   1 H        0.926     0.033     2.546     2.495
    51   1 H        0.926     0.032     2.556     2.500
    52   1 H        0.926     0.031     2.567     2.506
    53   1 H        0.926     0.032     2.556     2.500
    54   1 H        0.926     0.033     2.547     2.496
    55   1 H        0.926     0.032     2.561     2.503
    56   1 H        0.926     0.032     2.559     2.501
    57   1 H        0.926     0.033     2.546     2.495
    58   1 H        0.926     0.032     2.556     2.500
    59   1 H        0.926     0.031     2.567     2.506
    60   1 H        0.926     0.032     2.556     2.500
    61   1 H        0.926     0.033     2.545     2.495
    62   1 H        0.926     0.032     2.560     2.502
    63   1 H        0.926     0.032     2.559     2.501
    64   1 H        0.926     0.033     2.545     2.495
    65   1 H        0.926     0.032     2.556     2.500
    66   1 H        0.926     0.031     2.567     2.506
    67   1 H        0.926     0.032     2.556     2.500
    68   1 H        0.926     0.033     2.546     2.495
    69   1 H        0.926     0.032     2.560     2.502
    70   1 H        0.926     0.032     2.558     2.501
    71   1 H        0.926     0.033     2.544     2.494
    72   1 H        0.926     0.032     2.557     2.500
    73   1 H        0.926     0.031     2.567     2.506
    74   1 H        0.926     0.032     2.556     2.500
    75   1 H        0.926     0.033     2.546     2.495
    76   1 H        0.926     0.032     2.561     2.502
    77   1 H        0.926     0.032     2.560     2.502

Wiberg/Mayer (AO) data.
largest (>0.10) Wiberg bond orders for each atom

     #   Z sym  total        # sym  WBO       # sym  WBO       # sym  WBO
 ---------------------------------------------------------------------------
     1  30 Zn   2.084 --    35 N    0.491    49 N    0.491    24 N    0.491
                            48 N    0.491
     2   6 C    3.930 --    47 C    1.312     9 C    1.312     3 C    1.026
     3   6 C    3.987 --     4 C    1.393     8 C    1.393     2 C    1.026
                             6 C    0.108
     4   6 C    3.984 --     5 C    1.448     3 C    1.393    50 H    0.970
                             7 C    0.109
     5   6 C    3.991 --     4 C    1.448     6 C    1.436    51 H    0.970
                             8 C    0.109
     6   6 C    3.986 --     5 C    1.436     7 C    1.436    52 H    0.972
                             3 C    0.108
     7   6 C    3.991 --     8 C    1.448     6 C    1.436    53 H    0.970
                             4 C    0.109
     8   6 C    3.984 --     7 C    1.448     3 C    1.393    54 H    0.970
                             5 C    0.109
     9   6 C    3.931 --     2 C    1.312    49 N    1.261    10 C    1.174
    10   6 C    3.958 --    11 C    1.652     9 C    1.174    55 H    0.970
    11   6 C    3.958 --    10 C    1.652    12 C    1.174    56 H    0.970
    12   6 C    3.931 --    13 C    1.312    49 N    1.261    11 C    1.174
    13   6 C    3.930 --    12 C    1.312    20 C    1.311    14 C    1.027
    14   6 C    3.987 --    15 C    1.393    19 C    1.393    13 C    1.027
                            17 C    0.108
    15   6 C    3.984 --    16 C    1.448    14 C    1.393    57 H    0.970
                            18 C    0.109
    16   6 C    3.991 --    15 C    1.448    17 C    1.436    58 H    0.970
                            19 C    0.109
    17   6 C    3.986 --    16 C    1.436    18 C    1.436    59 H    0.972
                            14 C    0.108
    18   6 C    3.991 --    19 C    1.448    17 C    1.436    60 H    0.970
                            15 C    0.109
    19   6 C    3.984 --    18 C    1.448    14 C    1.393    61 H    0.970
                            16 C    0.109
    20   6 C    3.931 --    13 C    1.311    24 N    1.261    21 C    1.174
    21   6 C    3.958 --    22 C    1.652    20 C    1.174    62 H    0.970
    22   6 C    3.958 --    21 C    1.652    23 C    1.174    63 H    0.970
    23   6 C    3.931 --    25 C    1.312    24 N    1.261    22 C    1.174
    24   7 N    3.461 --    20 C    1.261    23 C    1.261     1 Zn   0.491
    25   6 C    3.930 --    23 C    1.312    32 C    1.311    26 C    1.027
    26   6 C    3.987 --    27 C    1.393    31 C    1.393    25 C    1.027
                            29 C    0.108
    27   6 C    3.984 --    28 C    1.448    26 C    1.393    64 H    0.970
                            30 C    0.109
    28   6 C    3.991 --    27 C    1.448    29 C    1.436    65 H    0.970
                            31 C    0.109
    29   6 C    3.986 --    28 C    1.436    30 C    1.436    66 H    0.972
                            26 C    0.108
    30   6 C    3.991 --    31 C    1.448    29 C    1.436    67 H    0.970
                            27 C    0.109
    31   6 C    3.984 --    30 C    1.448    26 C    1.393    68 H    0.970
                            28 C    0.109
    32   6 C    3.931 --    25 C    1.311    35 N    1.261    33 C    1.174
    33   6 C    3.958 --    34 C    1.652    32 C    1.174    69 H    0.970
    34   6 C    3.958 --    33 C    1.652    36 C    1.174    70 H    0.970
    35   7 N    3.461 --    32 C    1.261    36 C    1.260     1 Zn   0.491
    36   6 C    3.931 --    37 C    1.312    35 N    1.260    34 C    1.174
    37   6 C    3.930 --    36 C    1.312    44 C    1.311    38 C    1.027
    38   6 C    3.987 --    39 C    1.393    43 C    1.393    37 C    1.027
                            41 C    0.108
    39   6 C    3.984 --    40 C    1.448    38 C    1.393    71 H    0.970
                            42 C    0.109
    40   6 C    3.991 --    39 C    1.448    41 C    1.436    72 H    0.970
                            43 C    0.109
    41   6 C    3.986 --    40 C    1.436    42 C    1.436    73 H    0.972
                            38 C    0.108
    42   6 C    3.991 --    43 C    1.448    41 C    1.436    74 H    0.970
                            39 C    0.109
    43   6 C    3.983 --    42 C    1.448    38 C    1.393    75 H    0.970
                            40 C    0.109
    44   6 C    3.931 --    37 C    1.311    48 N    1.261    45 C    1.174
    45   6 C    3.958 --    46 C    1.652    44 C    1.174    76 H    0.970
    46   6 C    3.958 --    45 C    1.652    47 C    1.174    77 H    0.970
    47   6 C    3.931 --     2 C    1.312    48 N    1.261    46 C    1.174
    48   7 N    3.461 --    44 C    1.261    47 C    1.261     1 Zn   0.491
    49   7 N    3.461 --     9 C    1.261    12 C    1.261     1 Zn   0.491
    50   1 H    0.999 --     4 C    0.970
    51   1 H    0.998 --     5 C    0.970
    52   1 H    0.999 --     6 C    0.972
    53   1 H    0.998 --     7 C    0.970
    54   1 H    0.999 --     8 C    0.970
    55   1 H    0.998 --    10 C    0.970
    56   1 H    0.998 --    11 C    0.970
    57   1 H    0.999 --    15 C    0.970
    58   1 H    0.998 --    16 C    0.970
    59   1 H    0.999 --    17 C    0.972
    60   1 H    0.998 --    18 C    0.970
    61   1 H    0.999 --    19 C    0.970
    62   1 H    0.998 --    21 C    0.970
    63   1 H    0.998 --    22 C    0.970
    64   1 H    0.999 --    27 C    0.970
    65   1 H    0.998 --    28 C    0.970
    66   1 H    0.999 --    29 C    0.972
    67   1 H    0.998 --    30 C    0.970
    68   1 H    0.999 --    31 C    0.970
    69   1 H    0.998 --    33 C    0.970
    70   1 H    0.998 --    34 C    0.970
    71   1 H    0.999 --    39 C    0.970
    72   1 H    0.998 --    40 C    0.970
    73   1 H    0.999 --    41 C    0.972
    74   1 H    0.998 --    42 C    0.970
    75   1 H    0.999 --    43 C    0.970
    76   1 H    0.998 --    45 C    0.970
    77   1 H    0.998 --    46 C    0.970
 ---------------------------------------------------------------------------

molecular dipole:
                 x           y           z       tot (Debye)
 q only:        0.001       0.000      -0.001
   full:        0.000       0.000      -0.002       0.004

           -------------------------------------------------
          | TOTAL ENERGY             -120.818669664395 Eh   |
          | GRADIENT NORM               0.000307984640 Eh/α |
          | HOMO-LUMO GAP               1.598943650332 eV   |
           -------------------------------------------------

 * finished run on 2022/07/26 at 11:22:00.322
