   * xtb version 6.5.1 (b24c23e) compiled by 'conda@728c89f4b128' on 2022-07-12
          program call               : xtb Ni_Ph2Me_C8_3.xyz --gfn 1 --opt -T 48

   ID    Z sym.   atoms
    1   28 Ni     1, 69, 153
    2    6 C      2-6, 8-11, 13-31, 34-41, 70-74, 76-79, 81-99, 102-109,
                  137-152, 154-158, 160-163, 165-183, 186-193
    3    7 N      7, 12, 32, 33, 75, 80, 100, 101, 159, 164, 184, 185
    4    1 H      42-68, 110-136, 194-219

          :  Hamiltonian                  GFN1-xTB          :
 * total energy  :  -354.6539254 Eh     change       -0.9467385E-08 Eh
 * total energy  :  -355.1187779 Eh     change       -0.4648526E+00 Eh
 * total energy  :  -355.2716192 Eh     change       -0.1528413E+00 Eh
 * total energy  :  -355.3528681 Eh     change       -0.8124890E-01 Eh
 * total energy  :  -355.4233016 Eh     change       -0.7043352E-01 Eh
 * total energy  :  -355.4948801 Eh     change       -0.7157850E-01 Eh
 * total energy  :  -355.5528242 Eh     change       -0.5794404E-01 Eh
 * total energy  :  -355.5857511 Eh     change       -0.3292695E-01 Eh
 * total energy  :  -355.6112047 Eh     change       -0.2545363E-01 Eh
 * total energy  :  -355.6285334 Eh     change       -0.1732869E-01 Eh
 * total energy  :  -355.7137042 Eh     change       -0.2709435E-04 Eh
 * total energy  :  -355.7137238 Eh     change       -0.1959364E-04 Eh
 * total energy  :  -355.7137402 Eh     change       -0.1642338E-04 Eh
 * total energy  :  -355.7137498 Eh     change       -0.9607981E-05 Eh
 * total energy  :  -355.7137676 Eh     change       -0.1781489E-04 Eh
 * total energy  :  -355.7137872 Eh     change       -0.1962779E-04 Eh
 * total energy  :  -355.7138113 Eh     change       -0.2409668E-04 Eh
 * total energy  :  -355.7138292 Eh     change       -0.1788210E-04 Eh
 * total energy  :  -355.7138301 Eh     change       -0.9032767E-06 Eh
   *** GEOMETRY OPTIMIZATION CONVERGED AFTER 68 ITERATIONS ***

 final structure:
================
219
 xtb: 6.5.1 (b24c23e)
Ni          25.85924661507016        0.06823580999142       -0.20039954633883
C           22.51052768021178        0.25968694655949       -0.70824874033651
C           23.15161479172082        1.37015996249120       -0.19931077308063
C           22.47096940166199        2.57254799466345        0.17300780341408
C           23.41435974168534        3.42447423431823        0.63831188124326
C           24.67539062418916        2.75307287924358        0.51892001785347
N           24.49930220196487        1.48082166051389        0.03325699946592
C           25.89846345076521        3.34649906004771        0.80183846538968
C           27.10825831599922        2.68836467188868        0.62621375565566
C           28.38265524919990        3.32268994344190        0.77607642260191
C           29.32158180371126        2.38252443167638        0.51256907279606
N           27.26669477929790        1.37048807864241        0.26123184727733
C           28.61947452025970        1.17499546200204        0.21498458263252
C           29.26330308021224       -0.04505548098854       -0.01033441231275
C           28.56571242061654       -1.23794219263747       -0.22178872609268
C           29.21088454628899       -2.50542499059583       -0.35134825364593
C           28.23358652839674       -3.41874243883552       -0.56468050813438
C           26.99387416027012       -2.70291085265059       -0.57778881244359
C           25.77663407060401       -3.28637330813656       -0.89932327119169
C           25.74243529182220       -4.74504800657154       -1.17442518355587
C           25.46219578830696       -5.21164019341223       -2.45667065564778
C           25.43635848947151       -6.57785961883012       -2.72064653605585
C           25.11860117781464       -7.07397752902156       -4.10541920316444
C           25.68768685065546       -7.47557861260060       -1.68875172825120
C           25.96872050282325       -7.02366492551933       -0.40168596182747
C           26.25293828520440       -8.01150660365017        0.69736108394969
C           25.99827262680243       -5.65682561760598       -0.15102229039906
C           24.60096131061295       -2.55634150176066       -1.01440646373895
C           23.34310699709613       -3.12401280739975       -1.40250198397346
C           22.43641635148872       -2.11928794466387       -1.38382595344463
C           23.13442188680538       -0.94488240185668       -0.95773012210859
N           24.46296463452086       -1.21716666885063       -0.74660585094997
N           27.21030012066592       -1.36199228726833       -0.34912964087973
C           25.92558100034584        4.75489962397214        1.26759378933509
C           25.45637625746769        5.77959507577652        0.44697845933579
C           25.49379790780882        7.10137445257952        0.87758821097040
C           25.01312416167830        8.20866821925753       -0.02102675815245
C           26.00321963753336        7.39355824826506        2.13948387084701
C           26.47552170925413        6.38166756539516        2.96980238641268
C           27.00611904211903        6.70747504251507        4.33974822487864
C           26.43567869199403        5.06357415135324        2.52757786546908
H           21.44283813468831        0.32479567045543       -0.88291956530772
H           21.40560128462430        2.72048962590771        0.09439955486878
H           23.28206500148466        4.42095742261767        1.02734095055069
H           28.52871895912676        4.35871196162724        1.03452245617072
H           30.39512805962049        2.48018697818050        0.52321506196897
H           30.27573181644812       -2.65990559546253       -0.28438240011371
H           28.33338914907750       -4.48035922759370       -0.72125323838946
H           25.28052093308737       -4.50123890099619       -3.25574054844888
H           25.54468807581740       -8.06339509557525       -4.27197613883736
H           24.03611789058136       -7.14269161022611       -4.23556120590091
H           25.50698403454206       -6.39008037041220       -4.86053297451471
H           25.66690905298719       -8.54212850614713       -1.88805352426458
H           26.22914851729531       -7.52773149771714        1.67363913870464
H           25.51964639698141       -8.81900029558825        0.68651802986894
H           27.24183133764501       -8.45286940280344        0.55571199363366
H           26.20824831038650       -5.29067863764565        0.84794236452262
H           23.18632113849135       -4.16130295057766       -1.64999443910421
H           21.38330891931486       -2.15445305460744       -1.61357633946058
H           25.07764989175041        5.54108475613028       -0.54087447830651
H           24.54855078681325        9.00532290256043        0.56068865077079
H           24.29198780867459        7.83511244803612       -0.74808804448808
H           25.85732208358115        8.63624171315540       -0.56683951485649
H           26.03463930874517        8.42385609023230        2.47884620768089
H           26.18832864746203        6.70846000403400        5.06403914010356
H           27.47014994043089        7.69397783860101        4.35145714620541
H           27.74058949903059        5.96747446668013        4.65808181770619
H           26.79236010732169        4.26455054792928        3.16830180152929
Ni          62.96723918480483        0.13645259541607       -0.11361323924877
C           66.31156655042770        0.57904916995999       -0.46915214212563
C           65.66361764338869       -0.21899188134948       -1.38908850870125
C           66.33613016448004       -0.90730586894959       -2.44810305920844
C           65.38810908635202       -1.59249883620846       -3.12915144060937
C           64.13209227923510       -1.29612073531915       -2.50460296018958
N           64.31628801006021       -0.47703058744798       -1.41802723963216
C           62.90620104651705       -1.73859094494066       -2.98389302642201
C           61.70088273510837       -1.39546875574370       -2.38653639061372
C           60.42201063800820       -1.72538731335219       -2.93859368694943
C           59.48950155027480       -1.21304974305128       -2.10030576801416
N           61.55147456975082       -0.67627028115226       -1.22231336147446
C           60.20008473625033       -0.58293471338891       -1.03356592506366
C           59.56562703396143       -0.02157214424760        0.07771205354340
C           60.27084445134088        0.52001875739841        1.15577053475332
C           59.63437553586066        1.00016880480539        2.34074472514344
C           60.61752976625851        1.46172716517395        3.14992781414819
C           61.85215341856711        1.27403706745557        2.44972401694468
C           63.07242786059734        1.74807512915126        2.91022689897006
C           63.11382074987439        2.42449331741659        4.23124631041092
C           63.39437210455044        3.78644391389319        4.31371630231912
C           63.42167471058255        4.42809640795299        5.54839365388864
C           63.73863649668603        5.89699281561049        5.62950384872350
C           63.17120196698758        3.69429807784729        6.70280027107580
C           62.89047999043994        2.33175701967359        6.63592008234937
C           62.60557869655021        1.55938897761314        7.89560197806466
C           62.86010112824352        1.70257144692238        5.39689441121932
C           64.24219848586949        1.65512818616673        2.16784788029655
C           65.50302672931844        2.18797377162968        2.59390252224830
C           66.40201776807741        1.89034594582297        1.62690365623724
C           65.69644367213594        1.15234365423333        0.62413243107439
N           64.37090922502395        1.02358076848615        0.95585713766389
N           61.62703206346274        0.67793525851344        1.22881731171392
C           62.87376366379863       -2.57207048652081       -4.21094537218146
C           63.33169916988968       -2.05797962585108       -5.42331436969484
C           63.29711325326415       -2.83353587912425       -6.57699335891977
C           63.76907588814275       -2.26728493820373       -7.88895456289458
C           62.80065785425428       -4.13215782845280       -6.51095920274502
C           62.33819285224830       -4.65858913399546       -5.30871791417550
C           61.82262073716529       -6.07093788268712       -5.24561680676644
C           62.37569983198829       -3.87294273210481       -4.16146634722732
H           67.37786984197876        0.73097442281435       -0.59010234077945
H           67.39975332543871       -0.86969615454586       -2.62231839670870
H           65.51425448550002       -2.24173452386549       -3.98024755945973
H           60.26873821866216       -2.26655141199486       -3.85790800615174
H           58.41521364325063       -1.25687794160007       -2.17889561913097
H           58.57088094027374        0.97855955637360        2.51608203572080
H           60.52464569817305        1.90959160818813        4.12576753883564
H           63.57418356373555        4.35075314861079        3.40519002092351
H           63.31280253552794        6.33814882281203        6.53077728171760
H           64.82104119433276        6.04202446392753        5.65760980198991
H           63.34933403748933        6.42582572780872        4.75912641162223
H           63.19199115716871        4.18896647714032        7.66848623145661
H           62.63267058968055        0.48573296027416        7.71050816154861
H           63.33613169220057        1.80218597350597        8.66838046894918
H           61.61492930927266        1.81833465443107        8.27559429014121
H           62.65015612253101        0.64068477760952        5.33038450168543
H           65.66688010434773        2.71568453255056        3.51936972566316
H           67.45451590203729        2.12220966205482        1.58747112477899
H           63.70086376483826       -1.03909113836823       -5.46519007625214
H           64.23888863306954       -3.04032091233835       -8.49769892459831
H           64.48373245809225       -1.45970040241804       -7.72985717549910
H           62.92001866559659       -1.86616365657431       -8.44712682167900
H           62.77227188520963       -4.74089609200919       -7.40889965808916
H           62.64829909819581       -6.75896105768924       -5.04994616924017
H           61.35964518527835       -6.35745080757149       -6.19018537115943
H           61.09105829773138       -6.18229015828869       -4.44512709454390
H           62.02789858357881       -4.27495457475349       -3.21615916052529
C           30.66692371950301       -0.07800642915488        0.00812541328702
C           31.89101108902667       -0.09721537023656        0.01078714521156
C           33.23364115670548       -0.10904265033168        0.01631208997129
C           34.46408906049458       -0.11233519206196        0.00893606316896
C           35.80192041515529       -0.10680022986491        0.00486564008356
C           37.03234601216305       -0.09792397599277       -0.00743861336534
C           38.37477195120786       -0.09049932443075       -0.01752751238323
C           39.59908364829878       -0.07682067775208       -0.02631188630270
C           49.23004847646133       -0.02658505913396        0.13867745623234
C           50.45367001967544       -0.01959963383284        0.17120730296101
C           51.79658898953390       -0.01604353184184        0.19216900145360
C           53.02666636335640       -0.02013197224971        0.20301431914516
C           54.36511901012513       -0.01855174156735        0.20021475000816
C           55.59510027642332       -0.02547651707977        0.18698565290704
C           56.93814408707015       -0.02730880165690        0.16036321436845
C           58.16157628240729       -0.03124260848208        0.12717965709386
Ni          44.41545823697204       -0.05596831910804       -0.00193916353804
C           41.00233626683990       -0.06922462301600       -0.03075645681554
C           41.67067343984658        1.15872674059170        0.00131364133719
C           40.99833963290457        2.41704876666459        0.05916522721360
C           41.95066469417789        3.37275578381228       -0.07037019849372
C           43.20164319682896        2.69287218656557       -0.21143109601154
N           43.02144857301333        1.33099650232092       -0.12333420453626
C           44.40728796631422        3.33274977751193       -0.46619314669938
C           45.61777705670415        2.65571429312725       -0.52562402633218
C           46.87018123554903        3.28169396011234       -0.82066515849843
C           47.82824438337961        2.33767769794720       -0.65378551860917
N           45.80348526968965        1.32338983219188       -0.23203327747267
C           47.15739446421370        1.13670498245346       -0.27105632084367
C           47.82670142986375       -0.03483206131262        0.09566201037471
C           47.15157736811646       -1.21806884296077        0.40988727504996
C           47.81483958779569       -2.41812396765338        0.80852266609938
C           46.86311165674562       -3.37966251461057        0.88913730554726
C           45.62200230078095       -2.76319812970307        0.53287151320239
C           44.42438824666456       -3.45281849624827        0.39841380139836
C           44.43074007121067       -4.92578672572535        0.57007880553719
C           43.69761254373723       -5.51651055476610        1.59765751149335
C           43.70444271167895       -6.89740970125660        1.76607805574752
C           42.93474743334161       -7.52540413418006        2.89639172392588
C           44.44564660736267       -7.68687767355205        0.89257326645721
C           45.17840323969016       -7.11174960058344       -0.14205135021260
C           45.98495960235622       -7.97690671610149       -1.07232535762396
C           45.17185310253105       -5.72986281201483       -0.29502186506656
C           43.22145811615334       -2.81835345331143        0.11974465687085
C           41.97901581326840       -3.50451587285524       -0.06143458119744
C           41.01977701856958       -2.55345633932396       -0.17271899993798
C           41.68059778012432       -1.29170947716865       -0.07311904305599
N           43.03090324867350       -1.45589623279350        0.06408841562852
N           45.80543857085356       -1.42228790200670        0.28206442802412
C           44.40096947909348        4.80088559363139       -0.67665904672597
C           45.08809210222140        5.64065129616602        0.19765406133008
C           45.07659657766748        7.01905908732269        0.00782183021463
C           45.82621825109840        7.91742477596620        0.95420242674749
C           44.38113702748339        7.55245415141504       -1.07237447613423
C           43.69295935733241        6.72585087408670       -1.95651180603444
C           42.96319112595087        7.31427378510305       -3.13355800308100
C           43.70283283595422        5.35092383089708       -1.75117140642375
H           39.93361930749302        2.53741820621595        0.17799539613229
H           41.82822186188866        4.44355635460582       -0.06839659661009
H           46.99027909165914        4.31112950619114       -1.11634411398234
H           48.89546101029598        2.43116333965044       -0.77439798285264
H           48.87359501041557       -2.49978730315800        0.99455246270217
H           46.97990807283988       -4.41458535178151        1.16639547693471
H           43.13102011031646       -4.88973275769938        2.27757609748134
H           42.64062986271871       -8.54522781487392        2.64783804510357
H           43.55685676115694       -7.55985235791638        3.79375253445806
H           42.04078917111984       -6.94534427415712        3.12653054445438
H           44.45041009413308       -8.76490527554766        1.01691487378701
H           46.16001199976060       -7.47026546104991       -2.02142593299214
H           45.47343916417423       -8.92049790558099       -1.26440272753773
H           46.95433023180596       -8.20291811884760       -0.62227586170001
H           45.72989861154375       -5.26982417691194       -1.10316081373559
H           41.86611169178098       -4.57573840672034       -0.09733747553027
H           39.95789000585325       -2.67935920481786       -0.30975496970525
H           45.61750853545918        5.21394578619658        1.04254662080822
H           45.41801574073457        8.92799682265304        0.93782568682222
H           46.87777278161870        7.96917821573638        0.66294490640796
H           45.77672205885477        7.53278941123277        1.97327387269892
H           44.37113860865230        8.62661655031825       -1.22630442802634
H           42.52607744692513        8.27926792126360       -2.87557234028755
H           42.17137548847382        6.64700183529621       -3.47403993270399
H           43.65888431975235        7.46835274517625       -3.96159492944159
H           43.17687975735745        4.69521995566012       -2.43641587034388

          :  Hamiltonian                  GFN1-xTB          :
         :: total energy            -355.713830123480 Eh    ::
         :: gradient norm              0.000893333969 Eh/a0 ::
         :: HOMO-LUMO gap              1.088983121003 eV    ::
         :: SCC energy              -361.714271697115 Eh    ::
         :: repulsion energy           6.186867569041 Eh    ::

    * Orbital Energies and Occupations

         #    Occupation            Energy/Eh            Energy/eV
      -------------------------------------------------------------
         1        2.0000           -0.7804192             -21.2363
       ...           ...                  ...                  ...
       321        2.0000           -0.3960000             -10.7757
       322        2.0000           -0.3959509             -10.7744
       323        2.0000           -0.3952703             -10.7559
       324        2.0000           -0.3951567             -10.7528
       325        2.0000           -0.3951116             -10.7515
       326        2.0000           -0.3950963             -10.7511
       327        2.0000           -0.3941060             -10.7242
       328        2.0000           -0.3940732             -10.7233
       329        2.0000           -0.3940537             -10.7227
       330        2.0000           -0.3940162             -10.7217
       331        2.0000           -0.3891015             -10.5880
       332        2.0000           -0.3854432             -10.4884
       333        2.0000           -0.3808000             -10.3621 (HOMO)
       334                         -0.3407806              -9.2731 (LUMO)
       335                         -0.3337728              -9.0824
       336                         -0.3306730              -8.9981
       337                         -0.3277792              -8.9193
       338                         -0.3271427              -8.9020
       339                         -0.3270862              -8.9005
       340                         -0.3268997              -8.8954
       341                         -0.3258620              -8.8672
       342                         -0.3258339              -8.8664
       343                         -0.3083888              -8.3917
       344                         -0.3002993              -8.1716
       ...                                ...                  ...
       731                          1.6084636              43.7685
      -------------------------------------------------------------
                  HL-Gap            0.0400194 Eh            1.0890 eV

Wiberg/Mayer (AO) data.
largest (>0.10) Wiberg bond orders for each atom

     #   Z sym  total        # sym  WBO       # sym  WBO       # sym  WBO
 ---------------------------------------------------------------------------
     1  28 Ni   3.011 --    32 N    0.664     7 N    0.664    12 N    0.662
                            33 N    0.662
     2   6 C    3.933 --    31 C    1.364     3 C    1.362    42 H    0.970
     3   6 C    3.924 --     2 C    1.362     7 N    1.215     4 C    1.176
     4   6 C    3.959 --     5 C    1.648     3 C    1.176    43 H    0.975
     5   6 C    3.963 --     4 C    1.648     6 C    1.177    44 H    0.972
     6   6 C    3.919 --     8 C    1.324     7 N    1.220     5 C    1.177
     7   7 N    3.402 --     6 C    1.220     3 C    1.215     1 Ni   0.664
     8   6 C    3.939 --     9 C    1.328     6 C    1.324    34 C    1.023
     9   6 C    3.914 --     8 C    1.328    12 N    1.206    10 C    1.184
    10   6 C    3.959 --    11 C    1.635     9 C    1.184    45 H    0.973
    11   6 C    3.961 --    10 C    1.635    13 C    1.191    46 H    0.973
    12   7 N    3.407 --    13 C    1.239     9 C    1.206     1 Ni   0.662
    13   6 C    3.903 --    14 C    1.261    12 N    1.239    11 C    1.191
    14   6 C    3.943 --    13 C    1.261    15 C    1.260   137 C    1.187
    15   6 C    3.903 --    14 C    1.260    33 N    1.242    16 C    1.191
    16   6 C    3.961 --    17 C    1.636    15 C    1.191    47 H    0.973
    17   6 C    3.959 --    16 C    1.636    18 C    1.183    48 H    0.973
    18   6 C    3.914 --    19 C    1.332    33 N    1.203    17 C    1.183
    19   6 C    3.938 --    18 C    1.332    28 C    1.323    20 C    1.019
    20   6 C    3.988 --    21 C    1.403    27 C    1.395    19 C    1.019
                            24 C    0.104
    21   6 C    3.987 --    22 C    1.412    20 C    1.403    49 H    0.972
                            25 C    0.104
    22   6 C    3.988 --    24 C    1.421    21 C    1.412    23 C    1.020
                            27 C    0.103
    23   6 C    3.995 --    22 C    1.020    50 H    0.983    52 H    0.982
                            51 H    0.971
    24   6 C    3.990 --    22 C    1.421    25 C    1.411    53 H    0.972
                            20 C    0.104
    25   6 C    3.988 --    27 C    1.421    24 C    1.411    26 C    1.020
                            21 C    0.104
    26   6 C    3.996 --    25 C    1.020    54 H    0.985    55 H    0.979
                            56 H    0.972
    27   6 C    3.987 --    25 C    1.421    20 C    1.395    57 H    0.972
                            22 C    0.103
    28   6 C    3.919 --    19 C    1.323    32 N    1.221    29 C    1.178
    29   6 C    3.963 --    30 C    1.649    28 C    1.178    58 H    0.972
    30   6 C    3.959 --    29 C    1.649    31 C    1.175    59 H    0.975
    31   6 C    3.924 --     2 C    1.364    32 N    1.214    30 C    1.175
    32   7 N    3.402 --    28 C    1.221    31 C    1.214     1 Ni   0.664
    33   7 N    3.407 --    15 C    1.242    18 C    1.203     1 Ni   0.662
    34   6 C    3.988 --    41 C    1.398    35 C    1.396     8 C    1.023
                            38 C    0.103
    35   6 C    3.987 --    36 C    1.417    34 C    1.396    60 H    0.972
                            39 C    0.103
    36   6 C    3.988 --    35 C    1.417    38 C    1.415    37 C    1.020
                            41 C    0.104
    37   6 C    3.995 --    36 C    1.020    62 H    0.984    61 H    0.982
                            63 H    0.971
    38   6 C    3.989 --    39 C    1.416    36 C    1.415    64 H    0.972
                            34 C    0.103
    39   6 C    3.988 --    41 C    1.416    38 C    1.416    40 C    1.020
                            35 C    0.103
    40   6 C    3.995 --    39 C    1.020    67 H    0.983    66 H    0.982
                            65 H    0.971
    41   6 C    3.987 --    39 C    1.416    34 C    1.398    68 H    0.972
                            36 C    0.104
    42   1 H    1.000 --     2 C    0.970
    43   1 H    0.998 --     4 C    0.975
    44   1 H    1.005 --     5 C    0.972
    45   1 H    1.005 --    10 C    0.973
    46   1 H    1.002 --    11 C    0.973
    47   1 H    1.002 --    16 C    0.973
    48   1 H    1.005 --    17 C    0.973
    49   1 H    1.002 --    21 C    0.972
    50   1 H    1.004 --    23 C    0.983
    51   1 H    1.006 --    23 C    0.971
    52   1 H    1.004 --    23 C    0.982
    53   1 H    1.000 --    24 C    0.972
    54   1 H    1.004 --    26 C    0.985
    55   1 H    1.005 --    26 C    0.979
    56   1 H    1.006 --    26 C    0.972
    57   1 H    1.002 --    27 C    0.972
    58   1 H    1.005 --    29 C    0.972
    59   1 H    0.998 --    30 C    0.975
    60   1 H    1.003 --    35 C    0.972
    61   1 H    1.004 --    37 C    0.982
    62   1 H    1.004 --    37 C    0.984
    63   1 H    1.006 --    37 C    0.971
    64   1 H    1.000 --    38 C    0.972
    65   1 H    1.006 --    40 C    0.971
    66   1 H    1.004 --    40 C    0.982
    67   1 H    1.004 --    40 C    0.983
    68   1 H    1.002 --    41 C    0.972
    69  28 Ni   3.012 --    75 N    0.664   100 N    0.664   101 N    0.662
                            80 N    0.662
    70   6 C    3.934 --    99 C    1.364    71 C    1.362   110 H    0.970
    71   6 C    3.924 --    70 C    1.362    75 N    1.215    72 C    1.176
    72   6 C    3.960 --    73 C    1.648    71 C    1.176   111 H    0.975
    73   6 C    3.963 --    72 C    1.648    74 C    1.177   112 H    0.972
    74   6 C    3.919 --    76 C    1.324    75 N    1.220    73 C    1.177
    75   7 N    3.403 --    74 C    1.220    71 C    1.215    69 Ni   0.664
    76   6 C    3.939 --    77 C    1.328    74 C    1.324   102 C    1.023
    77   6 C    3.915 --    76 C    1.328    80 N    1.206    78 C    1.184
    78   6 C    3.959 --    79 C    1.636    77 C    1.184   113 H    0.973
    79   6 C    3.961 --    78 C    1.636    81 C    1.191   114 H    0.973
    80   7 N    3.407 --    81 C    1.238    77 C    1.206    69 Ni   0.662
    81   6 C    3.904 --    82 C    1.263    80 N    1.238    79 C    1.191
    82   6 C    3.944 --    81 C    1.263    83 C    1.262   152 C    1.183
    83   6 C    3.904 --    82 C    1.262   101 N    1.240    84 C    1.191
    84   6 C    3.961 --    85 C    1.637    83 C    1.191   115 H    0.973
    85   6 C    3.959 --    84 C    1.637    86 C    1.183   116 H    0.973
    86   6 C    3.914 --    87 C    1.332   101 N    1.204    85 C    1.183
    87   6 C    3.939 --    86 C    1.332    96 C    1.323    88 C    1.019
    88   6 C    3.988 --    89 C    1.403    95 C    1.394    87 C    1.019
                            92 C    0.104
    89   6 C    3.987 --    90 C    1.412    88 C    1.403   117 H    0.972
                            93 C    0.104
    90   6 C    3.988 --    92 C    1.421    89 C    1.412    91 C    1.020
                            95 C    0.103
    91   6 C    3.995 --    90 C    1.020   118 H    0.983   120 H    0.982
                           119 H    0.971
    92   6 C    3.990 --    90 C    1.421    93 C    1.411   121 H    0.972
                            88 C    0.104
    93   6 C    3.988 --    95 C    1.421    92 C    1.411    94 C    1.020
                            89 C    0.104
    94   6 C    3.996 --    93 C    1.020   122 H    0.985   123 H    0.979
                           124 H    0.972
    95   6 C    3.987 --    93 C    1.421    88 C    1.394   125 H    0.972
                            90 C    0.103
    96   6 C    3.919 --    87 C    1.323   100 N    1.221    97 C    1.177
    97   6 C    3.963 --    98 C    1.649    96 C    1.177   126 H    0.972
    98   6 C    3.960 --    97 C    1.649    99 C    1.175   127 H    0.975
    99   6 C    3.924 --    70 C    1.364   100 N    1.214    98 C    1.175
   100   7 N    3.403 --    96 C    1.221    99 C    1.214    69 Ni   0.664
   101   7 N    3.407 --    83 C    1.240    86 C    1.204    69 Ni   0.662
   102   6 C    3.988 --   109 C    1.398   103 C    1.396    76 C    1.023
                           106 C    0.103
   103   6 C    3.987 --   104 C    1.418   102 C    1.396   128 H    0.972
                           107 C    0.103
   104   6 C    3.988 --   103 C    1.418   106 C    1.415   105 C    1.020
                           109 C    0.104
   105   6 C    3.995 --   104 C    1.020   130 H    0.984   129 H    0.982
                           131 H    0.971
   106   6 C    3.989 --   107 C    1.416   104 C    1.415   132 H    0.972
                           102 C    0.103
   107   6 C    3.988 --   106 C    1.416   109 C    1.416   108 C    1.020
                           103 C    0.103
   108   6 C    3.995 --   107 C    1.020   135 H    0.983   134 H    0.982
                           133 H    0.971
   109   6 C    3.987 --   107 C    1.416   102 C    1.398   136 H    0.972
                           104 C    0.104
   110   1 H    1.000 --    70 C    0.970
   111   1 H    0.998 --    72 C    0.975
   112   1 H    1.005 --    73 C    0.972
   113   1 H    1.005 --    78 C    0.973
   114   1 H    1.002 --    79 C    0.973
   115   1 H    1.002 --    84 C    0.973
   116   1 H    1.005 --    85 C    0.973
   117   1 H    1.002 --    89 C    0.972
   118   1 H    1.004 --    91 C    0.983
   119   1 H    1.006 --    91 C    0.971
   120   1 H    1.004 --    91 C    0.982
   121   1 H    1.000 --    92 C    0.972
   122   1 H    1.004 --    94 C    0.985
   123   1 H    1.005 --    94 C    0.979
   124   1 H    1.006 --    94 C    0.972
   125   1 H    1.002 --    95 C    0.972
   126   1 H    1.005 --    97 C    0.972
   127   1 H    0.998 --    98 C    0.975
   128   1 H    1.003 --   103 C    0.972
   129   1 H    1.004 --   105 C    0.982
   130   1 H    1.004 --   105 C    0.984
   131   1 H    1.006 --   105 C    0.971
   132   1 H    1.000 --   106 C    0.972
   133   1 H    1.006 --   108 C    0.971
   134   1 H    1.004 --   108 C    0.982
   135   1 H    1.004 --   108 C    0.983
   136   1 H    1.002 --   109 C    0.972
   137   6 C    3.877 --   138 C    2.443    14 C    1.187   140 C    0.187
   138   6 C    3.937 --   137 C    2.443   139 C    1.343
   139   6 C    3.893 --   140 C    2.338   138 C    1.343   142 C    0.183
   140   6 C    3.927 --   139 C    2.338   141 C    1.368   137 C    0.187
   141   6 C    3.926 --   142 C    2.337   140 C    1.368   144 C    0.187
   142   6 C    3.894 --   141 C    2.337   143 C    1.344   139 C    0.183
   143   6 C    3.935 --   144 C    2.440   142 C    1.344
   144   6 C    3.878 --   143 C    2.440   154 C    1.190   141 C    0.187
   145   6 C    3.877 --   146 C    2.444   166 C    1.186   148 C    0.187
   146   6 C    3.935 --   145 C    2.444   147 C    1.340
   147   6 C    3.893 --   148 C    2.342   146 C    1.340   150 C    0.183
   148   6 C    3.925 --   147 C    2.342   149 C    1.364   145 C    0.187
   149   6 C    3.927 --   150 C    2.342   148 C    1.364   152 C    0.187
   150   6 C    3.893 --   149 C    2.342   151 C    1.339   147 C    0.183
   151   6 C    3.938 --   152 C    2.447   150 C    1.339
   152   6 C    3.877 --   151 C    2.447    82 C    1.183   149 C    0.187
   153  28 Ni   3.008 --   185 N    0.661   159 N    0.661   184 N    0.661
                           164 N    0.661
   154   6 C    3.934 --   155 C    1.259   183 C    1.258   144 C    1.190
   155   6 C    3.903 --   154 C    1.259   159 N    1.239   156 C    1.193
   156   6 C    3.959 --   157 C    1.632   155 C    1.193   194 H    0.973
   157   6 C    3.960 --   156 C    1.632   158 C    1.187   195 H    0.973
   158   6 C    3.912 --   160 C    1.325   159 N    1.204   157 C    1.187
   159   7 N    3.400 --   155 C    1.239   158 C    1.204   153 Ni   0.661
   160   6 C    3.935 --   161 C    1.326   158 C    1.325   186 C    1.024
   161   6 C    3.912 --   160 C    1.326   164 N    1.203   162 C    1.186
   162   6 C    3.960 --   163 C    1.633   161 C    1.186   196 H    0.973
   163   6 C    3.959 --   162 C    1.633   165 C    1.193   197 H    0.973
   164   7 N    3.399 --   165 C    1.240   161 C    1.203   153 Ni   0.661
   165   6 C    3.904 --   166 C    1.260   164 N    1.240   163 C    1.193
   166   6 C    3.934 --   167 C    1.261   165 C    1.260   145 C    1.186
   167   6 C    3.904 --   166 C    1.261   185 N    1.239   168 C    1.193
   168   6 C    3.959 --   169 C    1.633   167 C    1.193   198 H    0.973
   169   6 C    3.960 --   168 C    1.633   170 C    1.187   199 H    0.973
   170   6 C    3.912 --   171 C    1.325   185 N    1.205   169 C    1.187
   171   6 C    3.935 --   180 C    1.327   170 C    1.325   172 C    1.025
   172   6 C    3.988 --   173 C    1.398   179 C    1.395   171 C    1.025
                           176 C    0.103
   173   6 C    3.987 --   174 C    1.415   172 C    1.398   200 H    0.972
                           177 C    0.104
   174   6 C    3.988 --   176 C    1.418   173 C    1.415   175 C    1.020
                           179 C    0.103
   175   6 C    3.995 --   174 C    1.020   201 H    0.983   203 H    0.982
                           202 H    0.971
   176   6 C    3.989 --   174 C    1.418   177 C    1.413   204 H    0.972
                           172 C    0.103
   177   6 C    3.988 --   179 C    1.419   176 C    1.413   178 C    1.020
                           173 C    0.104
   178   6 C    3.995 --   177 C    1.020   205 H    0.984   206 H    0.981
                           207 H    0.971
   179   6 C    3.987 --   177 C    1.419   172 C    1.395   208 H    0.972
                           174 C    0.103
   180   6 C    3.912 --   171 C    1.327   184 N    1.203   181 C    1.186
   181   6 C    3.960 --   182 C    1.632   180 C    1.186   209 H    0.973
   182   6 C    3.959 --   181 C    1.632   183 C    1.194   210 H    0.973
   183   6 C    3.903 --   154 C    1.258   184 N    1.241   182 C    1.194
   184   7 N    3.400 --   183 C    1.241   180 C    1.203   153 Ni   0.661
   185   7 N    3.400 --   167 C    1.239   170 C    1.205   153 Ni   0.661
   186   6 C    3.988 --   187 C    1.400   193 C    1.394   160 C    1.024
                           190 C    0.103
   187   6 C    3.987 --   188 C    1.414   186 C    1.400   211 H    0.972
                           191 C    0.104
   188   6 C    3.988 --   190 C    1.419   187 C    1.414   189 C    1.020
                           193 C    0.103
   189   6 C    3.995 --   188 C    1.020   212 H    0.984   214 H    0.981
                           213 H    0.971
   190   6 C    3.989 --   188 C    1.419   191 C    1.412   215 H    0.972
                           186 C    0.103
   191   6 C    3.988 --   193 C    1.420   190 C    1.412   192 C    1.020
                           187 C    0.104
   192   6 C    3.995 --   191 C    1.020   217 H    0.984   216 H    0.981
                           218 H    0.971
   193   6 C    3.987 --   191 C    1.420   186 C    1.394   219 H    0.972
                           188 C    0.103
   194   1 H    1.002 --   156 C    0.973
   195   1 H    1.005 --   157 C    0.973
   196   1 H    1.005 --   162 C    0.973
   197   1 H    1.001 --   163 C    0.973
   198   1 H    1.002 --   168 C    0.973
   199   1 H    1.005 --   169 C    0.973
   200   1 H    1.003 --   173 C    0.972
   201   1 H    1.004 --   175 C    0.983
   202   1 H    1.006 --   175 C    0.971
   203   1 H    1.004 --   175 C    0.982
   204   1 H    1.000 --   176 C    0.972
   205   1 H    1.004 --   178 C    0.984
   206   1 H    1.004 --   178 C    0.981
   207   1 H    1.006 --   178 C    0.971
   208   1 H    1.003 --   179 C    0.972
   209   1 H    1.005 --   181 C    0.973
   210   1 H    1.002 --   182 C    0.973
   211   1 H    1.002 --   187 C    0.972
   212   1 H    1.004 --   189 C    0.984
   213   1 H    1.006 --   189 C    0.971
   214   1 H    1.004 --   189 C    0.981
   215   1 H    1.000 --   190 C    0.972
   216   1 H    1.004 --   192 C    0.981
   217   1 H    1.004 --   192 C    0.984
   218   1 H    1.006 --   192 C    0.971
   219   1 H    1.003 --   193 C    0.972
 ---------------------------------------------------------------------------

           -------------------------------------------------
          | TOTAL ENERGY             -355.713830123480 Eh   |
          | GRADIENT NORM               0.000893333969 Eh/α |
          | HOMO-LUMO GAP               1.088983121003 eV   |
           -------------------------------------------------

 * finished run on 2022/07/30 at 05:15:30.989
