   * xtb version 6.5.1 (b24c23e) compiled by 'conda@728c89f4b128' on 2022-07-12
          program call               : xtb Zn_PhNH2_C6_2.xyz --gfn 1 --opt -T 48

   ID    Z sym.   atoms
    1   30 Zn     1, 61
    2    6 C      2-6, 8-12, 14-18, 20-25, 27-31, 33-38, 62-66, 68-72, 74-78,
                  80-85, 87-91, 93-98, 121-126
    3    7 N      7, 13, 19, 26, 32, 39, 67, 73, 79, 86, 92, 99
    4    1 H      40-60, 100-120
########################################################################
[WARNING] Please study the warnings concerning your input carefully
-1- prog_main_parseArguments: Unknown option '-T' provided
########################################################################

          :  Hamiltonian                  GFN1-xTB          :
 * total energy  :  -210.2277311 Eh     change       -0.2893898E-09 Eh
 * total energy  :  -210.3527965 Eh     change       -0.1250654E+00 Eh
 * total energy  :  -210.4052130 Eh     change       -0.5241651E-01 Eh
 * total energy  :  -210.4166295 Eh     change       -0.1141658E-01 Eh
 * total energy  :  -210.4218855 Eh     change       -0.5255969E-02 Eh
 * total energy  :  -210.4248947 Eh     change       -0.3009171E-02 Eh
 * total energy  :  -210.4267513 Eh     change       -0.1856624E-02 Eh
 * total energy  :  -210.4281721 Eh     change       -0.1420829E-02 Eh
 * total energy  :  -210.4294222 Eh     change       -0.1250035E-02 Eh
 * total energy  :  -210.4311538 Eh     change       -0.1731647E-02 Eh
 * total energy  :  -210.4377745 Eh     change       -0.4083395E-04 Eh
 * total energy  :  -210.4378270 Eh     change       -0.5248693E-04 Eh
 * total energy  :  -210.4378672 Eh     change       -0.4019711E-04 Eh
 * total energy  :  -210.4379028 Eh     change       -0.3559289E-04 Eh
 * total energy  :  -210.4379191 Eh     change       -0.1626270E-04 Eh
 * total energy  :  -210.4379283 Eh     change       -0.9228342E-05 Eh
 * total energy  :  -210.4379345 Eh     change       -0.6229109E-05 Eh
 * total energy  :  -210.4379407 Eh     change       -0.6167660E-05 Eh
 * total energy  :  -210.4379454 Eh     change       -0.4743085E-05 Eh
   *** GEOMETRY OPTIMIZATION CONVERGED AFTER 36 ITERATIONS ***

 final structure:
================
126
 xtb: 6.5.1 (b24c23e)
Zn          14.08453123947345        0.02472421885275       -0.00974066683428
C           10.67743716958700        0.11882099588927        0.10088358324615
C           11.31016452830005        1.23360329613589       -0.43653009162997
C           10.63904340032287        2.38428059706726       -0.97213333916305
C           11.60037859275785        3.24352769327439       -1.39484663205594
C           12.87191332872454        2.63317354206954       -1.11088977283739
N           12.66004010814208        1.41193615981593       -0.54033936816242
C           14.12445670915410        3.19381863246690       -1.39368052357439
C           14.14393165339346        4.55523645174037       -1.98169073863707
C           14.72353553160912        4.78438917501828       -3.23203523797291
C           14.74731493788839        6.05390358757488       -3.78200394187722
C           14.20082403363935        7.13180591743072       -3.08113049301318
N           14.18992004099514        8.39741144272388       -3.64409728178575
C           13.61319721018712        6.91058429929033       -1.83322176340348
C           13.58627934223367        5.63617492683174       -1.29460512782292
C           15.36049927167606        2.57860729205857       -1.16263998820202
C           16.64310913416358        3.18204894249237       -1.39639570072524
C           17.58572316514391        2.27195725432475       -1.04030206009866
N           15.54926813005498        1.32057642146756       -0.65441395030941
C           16.89025205537689        1.10851471924203       -0.57555146672761
C           17.51717892967332       -0.06545412479184       -0.10960278763830
C           16.85854967466871       -1.20776655496226        0.38937842749701
C           17.51798950302483       -2.40633927513952        0.81570464722607
C           16.55113994446167       -3.26635475687223        1.22738355604320
C           15.29043967982336       -2.59645110124510        1.06666945411213
N           15.51495552242479       -1.34994065709894        0.54466430349677
C           14.03951130928038       -3.14404374925884        1.37431970868186
C           14.01867505194854       -4.50503636188250        1.96409524350645
C           14.64783902711189       -4.76488529000605        3.18390131109416
C           14.62673784646504       -6.03276234178443        3.73797680286606
C           13.98418018614056       -7.07867752280348        3.07103743117544
N           13.92708269465016       -8.33998146289306        3.64066776116646
C           13.34852023336824       -6.82654984701502        1.85284096897353
C           13.36663254464247       -5.55352790834887        1.31072689013268
C           12.80408169339912       -2.51537267258612        1.17033915030502
C           11.52192896117356       -3.05578890317700        1.53667908811802
C           10.58394956567833       -2.14373120427683        1.17694323902789
C           11.28115409016498       -1.03038492966202        0.59751180853827
N           12.62307353194212       -1.28304315604671        0.61330312046354
H            9.59267480651636        0.14899934692402        0.13651361821504
H            9.56805655395716        2.50492933739491       -1.02231948794761
H           11.46373329903415        4.20170659358115       -1.87023787460582
H           15.14261206020517        3.95156844473250       -3.78628672507326
H           15.19203487258845        6.21682587211555       -4.75776600050050
H           14.89477293473943        8.55395224387051       -4.34698387429863
H           14.10118801419967        9.15360060428374       -2.98414559515579
H           13.18332985770640        7.74256447371417       -1.28604065828808
H           13.14617004747784        5.47646277663883       -0.31622012614637
H           16.80243038412298        4.18073797737418       -1.77010534851960
H           18.65844019757350        2.37654752377039       -1.07792850753664
H           18.58433916063524       -2.56609495844575        0.79132379212720
H           16.67856217875016       -4.27201739317042        1.59472303898278
H           15.14118089358926       -3.95637161557646        3.71239791728723
H           15.10953110407470       -6.21913321828775        4.69118537846620
H           14.65939828942682       -8.53923037519565        4.30363830430203
H           13.75371302613349       -9.09049793328527        2.99093224416621
H           12.84483688502362       -7.63362953290016        1.33200792101245
H           12.88645196825284       -5.37004857749546        0.35563075357470
H           11.36407376369931       -4.00652501908693        2.02037880329336
H            9.51349773281465       -2.20528729347973        1.29720605270351
Zn          30.12467378487072       -0.02224129679380        0.01564148083726
C           33.53171890732006        0.01812348867461        0.15558119973165
C           32.89897727543367       -1.04585454622269        0.78763901399397
C           33.57009489914706       -2.12808044177788        1.45075020729138
C           32.60875854602979       -2.95532590283392        1.93309366006369
C           31.33722535322542       -2.38146912445031        1.58116543853097
N           31.54911133570717       -1.23104229371707        0.87868268326540
C           30.08467449150607       -2.92699408974697        1.89209960786064
C           30.06515940278909       -4.16931456253965        2.70195158109579
C           29.48545302471702       -5.33808382215695        2.20221973526103
C           29.46163229916673       -6.49786217953799        2.95657608481273
C           30.00817278683589       -6.50919741717587        4.24223192556801
N           30.01905337159711       -7.67765221185770        4.98614529040684
C           30.59588194287553       -5.34683442993835        4.74723849110233
C           30.62284809992853       -4.19382342726924        3.98253053199132
C           28.84864842841364       -2.39439227763515        1.50707122016146
C           27.56600829034323       -2.92252855307444        1.88092922924713
C           26.62344316218868       -2.12255533901911        1.31949233471332
N           28.65993343827628       -1.27555636096886        0.73949462981359
C           27.31896813295520       -1.09256630978106        0.60633389089688
C           26.69200883100389       -0.05555729087107       -0.11466772238730
C           27.35065718049855        0.99148242905651       -0.79113831262382
C           26.69123551969384        2.00929307298210       -1.55434513893196
C           27.65816195749072        2.82731220563895       -2.04403699680851
C           28.91883480023062        2.32311878875500       -1.57450767968918
N           28.69426096874957        1.19940866055493       -0.82383526633157
C           30.16977811925667        2.88202781110385       -1.86103991864865
C           30.19062941785539        4.12558391936682       -2.66956856250809
C           29.56165771291958        5.28590741433344       -2.21202993903869
C           29.58277865525785        6.44829465557717       -2.96260536907111
C           30.22513793761030        6.47028140755996       -4.20297305458107
N           30.28223694460222        7.64201789078888       -4.93948075432841
C           30.86061034693372        5.31557623686558       -4.66605734645267
C           30.84250412095102        4.16031352878606       -3.90457036181779
C           31.40518239312015        2.36468898956915       -1.44965156741245
C           32.68734175705802        2.96864830079260       -1.69759165328071
C           33.62527680901691        2.16501278538970       -1.13589496030401
C           32.92804324735424        1.06694215462538       -0.52803553620404
N           31.58614500770278        1.21960232461804       -0.73012417488765
H           34.61647026629090        0.03124857146076        0.20064298286400
H           34.64107891699227       -2.23648291974121        1.52374533358599
H           32.74540064600082       -3.88106022021408        2.46892970805953
H           29.06633087708322       -5.33996116520915        1.20184795332440
H           29.01683294717681       -7.40117746869622        2.55332989636947
H           29.31416164972500       -8.34999148097220        4.72834803134694
H           30.10780902214369       -7.54532095899883        5.98105481096306
H           31.02576618668143       -5.35039962915368        5.74301436769394
H           31.06301780581072       -3.29008967012476        4.38990834978498
H           27.40662185842776       -3.78594924817688        2.50665521400985
H           25.55072289603423       -2.21156710999738        1.38601241040308
H           25.62488152272310        2.07737438591675       -1.70088783354310
H           27.53081801303063        3.68903437126405       -2.67943696036080
H           29.06843776809520        5.27967986627123       -1.24607024287006
H           29.10014775169874        7.34579960413091       -2.59115123494723
H           29.55013443396618        8.30481823716391       -4.73894820400704
H           30.45526065770490        7.51512866249439       -5.92408219409919
H           31.36417864096798        5.32738016935649       -5.62658808716549
H           31.32258909704369        3.26286070459729       -4.27946597065620
H           32.84521894579495        3.89703474482643       -2.22290721753645
H           34.69571840351653        2.29932246269253       -1.12060465737665
C           22.71887927582354       -0.09011948194284       -0.18113820091611
C           21.49029901780444       -0.10094480376815       -0.17580351116547
C           20.14588076117108       -0.10017659452514       -0.16212324578105
C           18.92178485266062       -0.09319263781990       -0.14041429712850
C           24.06329600566921       -0.07903962937572       -0.17203823328897
C           25.28737147609937       -0.06495297263573       -0.15369407816741

          :  Hamiltonian                  GFN1-xTB          :
         :: total energy            -210.437945448425 Eh    ::
         :: gradient norm              0.000430626055 Eh/a0 ::
         :: HOMO-LUMO gap              1.059780693914 eV    ::
         :: SCC energy              -213.885143949259 Eh    ::
         :: repulsion energy           3.556412900914 Eh    ::

    * Orbital Energies and Occupations

         #    Occupation            Energy/Eh            Energy/eV
      -------------------------------------------------------------
         1        2.0000           -0.7761977             -21.1214
       ...           ...                  ...                  ...
       181        2.0000           -0.4123800             -11.2214
       182        2.0000           -0.4122512             -11.2179
       183        2.0000           -0.4121121             -11.2141
       184        2.0000           -0.4078184             -11.0973
       185        2.0000           -0.4017936             -10.9334
       186        2.0000           -0.3972948             -10.8109
       187        2.0000           -0.3948100             -10.7433
       188        2.0000           -0.3938408             -10.7170
       189        2.0000           -0.3938401             -10.7169
       190        2.0000           -0.3846737             -10.4675
       191        2.0000           -0.3846735             -10.4675
       192        2.0000           -0.3755468             -10.2191
       193        2.0000           -0.3664512              -9.9716 (HOMO)
       194                         -0.3275050              -8.9119 (LUMO)
       195                         -0.3164582              -8.6113
       196                         -0.3164578              -8.6113
       197                         -0.3160258              -8.5995
       198                         -0.2882154              -7.8427
       199                         -0.2810477              -7.6477
       200                         -0.2728116              -7.4236
       201                         -0.2543188              -6.9204
       202                         -0.2543139              -6.9202
       203                         -0.2543023              -6.9199
       204                         -0.2542843              -6.9194
       ...                                ...                  ...
       420                          1.5890739              43.2409
      -------------------------------------------------------------
                  HL-Gap            0.0389462 Eh            1.0598 eV

Wiberg/Mayer (AO) data.
largest (>0.10) Wiberg bond orders for each atom

     #   Z sym  total        # sym  WBO       # sym  WBO       # sym  WBO
 ---------------------------------------------------------------------------
     1  30 Zn   2.000 --    39 N    0.460     7 N    0.460    19 N    0.457
                            26 N    0.457
     2   6 C    3.925 --    38 C    1.357     3 C    1.356    40 H    0.972
     3   6 C    3.923 --     2 C    1.356     7 N    1.233     4 C    1.173
     4   6 C    3.960 --     5 C    1.655     3 C    1.173    41 H    0.976
     5   6 C    3.963 --     4 C    1.655     6 C    1.175    42 H    0.973
     6   6 C    3.916 --     8 C    1.311     7 N    1.245     5 C    1.175
     7   7 N    3.293 --     6 C    1.245     3 C    1.233     1 Zn   0.460
     8   6 C    3.934 --    16 C    1.322     6 C    1.311     9 C    1.033
     9   6 C    3.988 --    15 C    1.382    10 C    1.381     8 C    1.033
    10   6 C    3.988 --    11 C    1.468     9 C    1.381    43 H    0.973
                            14 C    0.100
    11   6 C    3.990 --    10 C    1.468    12 C    1.355    44 H    0.972
                            15 C    0.100
    12   6 C    3.952 --    14 C    1.355    11 C    1.355    13 N    1.113
    13   7 N    3.131 --    12 C    1.113    45 H    0.934    46 H    0.934
    14   6 C    3.990 --    15 C    1.467    12 C    1.355    47 H    0.972
                            10 C    0.100
    15   6 C    3.987 --    14 C    1.467     9 C    1.382    48 H    0.973
                            11 C    0.100
    16   6 C    3.912 --     8 C    1.322    19 N    1.225    17 C    1.181
    17   6 C    3.960 --    18 C    1.643    16 C    1.181    49 H    0.973
    18   6 C    3.961 --    17 C    1.643    20 C    1.188    50 H    0.974
    19   7 N    3.297 --    20 C    1.263    16 C    1.225     1 Zn   0.457
    20   6 C    3.903 --    19 N    1.263    21 C    1.251    18 C    1.188
    21   6 C    3.936 --    22 C    1.252    20 C    1.251   124 C    1.193
    22   6 C    3.903 --    26 N    1.263    21 C    1.252    23 C    1.188
    23   6 C    3.961 --    24 C    1.643    22 C    1.188    51 H    0.974
    24   6 C    3.960 --    23 C    1.643    25 C    1.181    52 H    0.973
    25   6 C    3.912 --    27 C    1.322    26 N    1.225    24 C    1.181
    26   7 N    3.297 --    22 C    1.263    25 C    1.225     1 Zn   0.457
    27   6 C    3.933 --    25 C    1.322    35 C    1.311    28 C    1.032
    28   6 C    3.988 --    29 C    1.382    34 C    1.382    27 C    1.032
    29   6 C    3.988 --    30 C    1.467    28 C    1.382    53 H    0.973
                            33 C    0.100
    30   6 C    3.990 --    29 C    1.467    31 C    1.355    54 H    0.972
                            34 C    0.100
    31   6 C    3.952 --    30 C    1.355    33 C    1.355    32 N    1.113
    32   7 N    3.131 --    31 C    1.113    56 H    0.934    55 H    0.934
    33   6 C    3.990 --    34 C    1.467    31 C    1.355    57 H    0.972
                            29 C    0.100
    34   6 C    3.988 --    33 C    1.467    28 C    1.382    58 H    0.973
                            30 C    0.100
    35   6 C    3.916 --    27 C    1.311    39 N    1.245    36 C    1.174
    36   6 C    3.963 --    37 C    1.656    35 C    1.174    59 H    0.973
    37   6 C    3.960 --    36 C    1.656    38 C    1.173    60 H    0.976
    38   6 C    3.923 --     2 C    1.357    39 N    1.232    37 C    1.173
    39   7 N    3.293 --    35 C    1.245    38 C    1.232     1 Zn   0.460
    40   1 H    1.002 --     2 C    0.972
    41   1 H    0.998 --     4 C    0.976
    42   1 H    1.006 --     5 C    0.973
    43   1 H    1.005 --    10 C    0.973
    44   1 H    0.999 --    11 C    0.972
    45   1 H    0.961 --    13 N    0.934
    46   1 H    0.961 --    13 N    0.934
    47   1 H    0.999 --    14 C    0.972
    48   1 H    1.005 --    15 C    0.973
    49   1 H    1.006 --    17 C    0.973
    50   1 H    1.003 --    18 C    0.974
    51   1 H    1.002 --    23 C    0.974
    52   1 H    1.006 --    24 C    0.973
    53   1 H    1.005 --    29 C    0.973
    54   1 H    0.999 --    30 C    0.972
    55   1 H    0.961 --    32 N    0.934
    56   1 H    0.961 --    32 N    0.934
    57   1 H    0.999 --    33 C    0.972
    58   1 H    1.005 --    34 C    0.973
    59   1 H    1.006 --    36 C    0.973
    60   1 H    0.998 --    37 C    0.976
    61  30 Zn   2.000 --    99 N    0.460    67 N    0.460    79 N    0.457
                            86 N    0.457
    62   6 C    3.925 --    98 C    1.357    63 C    1.356   100 H    0.972
    63   6 C    3.923 --    62 C    1.356    67 N    1.233    64 C    1.173
    64   6 C    3.960 --    65 C    1.655    63 C    1.173   101 H    0.976
    65   6 C    3.963 --    64 C    1.655    66 C    1.175   102 H    0.973
    66   6 C    3.916 --    68 C    1.311    67 N    1.245    65 C    1.175
    67   7 N    3.293 --    66 C    1.245    63 C    1.233    61 Zn   0.460
    68   6 C    3.934 --    76 C    1.322    66 C    1.311    69 C    1.033
    69   6 C    3.988 --    75 C    1.382    70 C    1.381    68 C    1.033
    70   6 C    3.988 --    71 C    1.468    69 C    1.381   103 H    0.973
                            74 C    0.100
    71   6 C    3.990 --    70 C    1.468    72 C    1.355   104 H    0.972
                            75 C    0.100
    72   6 C    3.952 --    74 C    1.355    71 C    1.355    73 N    1.113
    73   7 N    3.131 --    72 C    1.113   105 H    0.934   106 H    0.934
    74   6 C    3.990 --    75 C    1.467    72 C    1.355   107 H    0.972
                            70 C    0.100
    75   6 C    3.987 --    74 C    1.467    69 C    1.382   108 H    0.973
                            71 C    0.100
    76   6 C    3.912 --    68 C    1.322    79 N    1.225    77 C    1.181
    77   6 C    3.960 --    78 C    1.643    76 C    1.181   109 H    0.973
    78   6 C    3.961 --    77 C    1.643    80 C    1.188   110 H    0.974
    79   7 N    3.297 --    80 C    1.263    76 C    1.225    61 Zn   0.457
    80   6 C    3.903 --    79 N    1.263    81 C    1.251    78 C    1.188
    81   6 C    3.936 --    82 C    1.252    80 C    1.251   126 C    1.193
    82   6 C    3.903 --    86 N    1.263    81 C    1.252    83 C    1.188
    83   6 C    3.961 --    84 C    1.643    82 C    1.188   111 H    0.974
    84   6 C    3.960 --    83 C    1.643    85 C    1.181   112 H    0.973
    85   6 C    3.912 --    87 C    1.322    86 N    1.225    84 C    1.181
    86   7 N    3.297 --    82 C    1.263    85 C    1.225    61 Zn   0.457
    87   6 C    3.933 --    85 C    1.322    95 C    1.311    88 C    1.032
    88   6 C    3.988 --    89 C    1.382    94 C    1.382    87 C    1.032
    89   6 C    3.988 --    90 C    1.467    88 C    1.382   113 H    0.973
                            93 C    0.100
    90   6 C    3.990 --    89 C    1.467    91 C    1.355   114 H    0.972
                            94 C    0.100
    91   6 C    3.952 --    90 C    1.355    93 C    1.355    92 N    1.113
    92   7 N    3.131 --    91 C    1.113   116 H    0.934   115 H    0.934
    93   6 C    3.990 --    94 C    1.467    91 C    1.355   117 H    0.972
                            89 C    0.100
    94   6 C    3.988 --    93 C    1.467    88 C    1.382   118 H    0.973
                            90 C    0.100
    95   6 C    3.916 --    87 C    1.311    99 N    1.245    96 C    1.174
    96   6 C    3.963 --    97 C    1.656    95 C    1.174   119 H    0.973
    97   6 C    3.960 --    96 C    1.656    98 C    1.173   120 H    0.976
    98   6 C    3.923 --    62 C    1.357    99 N    1.232    97 C    1.173
    99   7 N    3.293 --    95 C    1.245    98 C    1.232    61 Zn   0.460
   100   1 H    1.002 --    62 C    0.972
   101   1 H    0.998 --    64 C    0.976
   102   1 H    1.006 --    65 C    0.973
   103   1 H    1.005 --    70 C    0.973
   104   1 H    0.999 --    71 C    0.972
   105   1 H    0.961 --    73 N    0.934
   106   1 H    0.961 --    73 N    0.934
   107   1 H    0.999 --    74 C    0.972
   108   1 H    1.005 --    75 C    0.973
   109   1 H    1.006 --    77 C    0.973
   110   1 H    1.003 --    78 C    0.974
   111   1 H    1.002 --    83 C    0.974
   112   1 H    1.006 --    84 C    0.973
   113   1 H    1.005 --    89 C    0.973
   114   1 H    0.999 --    90 C    0.972
   115   1 H    0.961 --    92 N    0.934
   116   1 H    0.961 --    92 N    0.934
   117   1 H    0.999 --    93 C    0.972
   118   1 H    1.005 --    94 C    0.973
   119   1 H    1.006 --    96 C    0.973
   120   1 H    0.998 --    97 C    0.976
   121   6 C    3.925 --   122 C    2.367   125 C    1.336   124 C    0.190
   122   6 C    3.925 --   121 C    2.367   123 C    1.336   126 C    0.190
   123   6 C    3.933 --   124 C    2.447   122 C    1.336
   124   6 C    3.890 --   123 C    2.447    21 C    1.193   121 C    0.190
   125   6 C    3.933 --   126 C    2.447   121 C    1.336
   126   6 C    3.890 --   125 C    2.447    81 C    1.193   122 C    0.190
 ---------------------------------------------------------------------------

           -------------------------------------------------
          | TOTAL ENERGY             -210.437945448425 Eh   |
          | GRADIENT NORM               0.000430626055 Eh/α |
          | HOMO-LUMO GAP               1.059780693914 eV   |
           -------------------------------------------------

 * finished run on 2022/07/30 at 09:43:52.554
