   * xtb version 6.5.1 (b24c23e) compiled by 'conda@728c89f4b128' on 2022-07-12
          program call               : xtb Fe_p-CP_C6_3.xyz --gfn 1 --opt -T 48

   ID    Z sym.   atoms
    1   26 Fe     1, 63, 137
    2    6 C      2-6, 8-11, 13-24, 27-32, 35-39, 42, 43, 64-68, 70-73,
                  75-86, 89-94, 97-101, 104, 105, 125-136, 138-142, 144-147,
                  149-160, 163-168, 171-175, 178, 179
    3    7 N      7, 12, 33, 34, 69, 74, 95, 96, 143, 148, 169, 170
    4    8 O      25, 26, 40, 41, 87, 88, 102, 103, 161, 162, 176, 177
    5    1 H      44-62, 106-124, 180-197

          :  Hamiltonian                  GFN1-xTB          :
 * total energy  :  -373.7896850 Eh     change       -0.1696867E-07 Eh
 * total energy  :  -374.2201006 Eh     change       -0.4304157E+00 Eh
 * total energy  :  -374.3697630 Eh     change       -0.1496624E+00 Eh
 * total energy  :  -374.4796252 Eh     change       -0.1098622E+00 Eh
 * total energy  :  -374.5506484 Eh     change       -0.7102323E-01 Eh
 * total energy  :  -374.5887995 Eh     change       -0.3815112E-01 Eh
 * total energy  :  -374.6138651 Eh     change       -0.2506557E-01 Eh
 * total energy  :  -374.6302717 Eh     change       -0.1640662E-01 Eh
 * total energy  :  -374.6403451 Eh     change       -0.1007336E-01 Eh
 * total energy  :  -374.6481522 Eh     change       -0.7807144E-02 Eh
 * total energy  :  -374.6828354 Eh     change       -0.1794608E-04 Eh
 * total energy  :  -374.6828490 Eh     change       -0.1357607E-04 Eh
 * total energy  :  -374.6828582 Eh     change       -0.9226105E-05 Eh
 * total energy  :  -374.6828675 Eh     change       -0.9270263E-05 Eh
 * total energy  :  -374.6828820 Eh     change       -0.1456385E-04 Eh
 * total energy  :  -374.6828961 Eh     change       -0.1406582E-04 Eh
 * total energy  :  -374.6829044 Eh     change       -0.8330048E-05 Eh
 * total energy  :  -374.6829104 Eh     change       -0.5989424E-05 Eh
 * total energy  :  -374.6829144 Eh     change       -0.3969176E-05 Eh
   *** GEOMETRY OPTIMIZATION CONVERGED AFTER 62 ITERATIONS ***

 final structure:
================
197
 xtb: 6.5.1 (b24c23e)
Fe          33.44876546507606       -0.09065251333975        0.00610747858856
C           30.05994180938012       -0.13669490694888        0.03253171676888
C           30.71859024734191       -0.30269832617508        1.23332247484621
C           30.04960114228756       -0.51057549794502        2.48216762122029
C           31.00568474189632       -0.50553489232290        3.44019479166547
C           32.26016628195552       -0.30323043627117        2.77392649320861
N           32.07141426166926       -0.19444575699771        1.42235185135603
C           33.47126361714368       -0.12767333879815        3.43278638017329
C           34.67138477747417        0.07738015540356        2.76653435686316
C           35.93490849577798        0.22381628094327        3.42591943540319
C           36.88066277368896        0.25481900211420        2.45689467662567
N           34.84521345527036        0.04970077864126        1.40317006517554
C           36.19448944217963        0.12312438000526        1.20985310342817
C           36.85416878466916       -0.00176807704603       -0.01689945472383
C           36.17760248622965       -0.12416740609553       -1.23463435027483
C           36.84287049942418       -0.27059485224542       -2.49113566524229
C           35.88295159359137       -0.22678149490267       -3.44627435544255
C           34.63330192632002       -0.04988445959677       -2.76863398004758
C           33.41516079546386        0.10883945789919       -3.41651281789750
C           33.40473274907038        0.17990272609897       -4.89581029678102
C           32.72231617059645       -0.77978064741349       -5.64797561803982
C           32.71527368742743       -0.70761201903617       -7.02877763814604
C           33.38529598662128        0.32811194540491       -7.68270751072695
C           33.34479785867459        0.36537129728954       -9.16436486955147
O           34.02105599719709        1.39585748415968       -9.69405042390385
O           32.76731836007734       -0.43994514741150       -9.84947001141160
C           34.06716476175060        1.28934492726157       -6.93595345593747
C           34.07822749701260        1.21175917615841       -5.55432235027231
C           32.20584750985799        0.19330307592116       -2.73676425579869
C           30.93463102963356        0.37597499344198       -3.37655761486625
C           29.99343361656051        0.29329784004238       -2.40735604358445
C           30.69043198522491        0.07746078550170       -1.17535039163493
N           32.04527620677798        0.06297767840668       -1.38306184960455
N           34.82745236594526       -0.02212921851487       -1.40926795691847
C           33.48234624838545       -0.17752789561742        4.91464599050372
C           33.18075879782788       -1.36867577146867        5.57916567715621
C           33.19313290519480       -1.41787720337456        6.96093969837077
C           33.50167095691273       -0.27592473984276        7.70246497651875
C           33.49966585839697       -0.37871056827820        9.18165642525973
O           33.80056563993804        0.77287396931320        9.80044566014052
O           33.25384890912336       -1.38742633709903        9.79265777570658
C           33.80070919653942        0.91633387474113        7.04261179873037
C           33.79334395716431        0.96215575438227        5.65914119469607
H           28.97631547768014       -0.16842384672925        0.04012564509105
H           28.98356004330844       -0.63017441431248        2.59236189242576
H           30.88363649998590       -0.61368242678867        4.50564719857198
H           36.07205287740387        0.27483562849894        4.49367241799992
H           37.94991590214838        0.34374586149680        2.56172115454331
H           37.90771303801024       -0.38878208449582       -2.61102611946422
H           35.99904263389703       -0.31534306830083       -4.51413509326816
H           32.21149804427261       -1.59127162433154       -5.14232105992678
H           32.19216284509832       -1.45162634741304       -7.61944577467702
H           33.94558322461457        1.34862548148223      -10.66094663530347
H           34.58615724140878        2.09638140230953       -7.43939884760935
H           34.59865585997373        1.96444940444756       -4.97295324130444
H           30.79376030138890        0.54540914560183       -4.43166505829900
H           28.92158015930724        0.36930718954857       -2.49823120578342
H           32.95110550686432       -2.25821635142084        5.00380292360831
H           32.96535152704268       -2.33997076502991        7.48432635289042
H           33.77760338489745        0.62158334556043       10.75928448356333
H           34.03782166547806        1.80545503367587        7.61476770946573
H           34.01581010750465        1.89073895295478        5.14578019194789
Fe          65.41030790566184       -0.07315838175680       -0.04434915781710
C           68.79782510137227       -0.12296638887087       -0.08178971687546
C           68.13701330172283       -0.15571802538114       -1.29253836668896
C           68.80246848498575       -0.22617208726704       -2.55847039955412
C           67.84436243925501       -0.11054450931486       -3.50763317935976
C           66.59239272429326        0.02304098280752       -2.81976581969471
N           66.78419880133231       -0.02341102577616       -1.46525434438767
C           65.38206736155699        0.28612916218349       -3.45092189846310
C           64.18543101479884        0.42629279589461       -2.76230582254509
C           62.92287868896882        0.66801503861390       -3.39498196773202
C           61.97883066175655        0.59000752554407       -2.42676082925911
N           64.01270837605185        0.23318489444286       -1.41215719118015
C           62.66516049598349        0.29633429086641       -1.20770650329057
C           62.00591734241614        0.01536711526479       -0.00602305031439
C           62.68398171926460       -0.26646028388871        1.18479286984064
C           62.02063704979481       -0.57226896864318        2.41333607274331
C           62.98165182683757       -0.64562415849691        3.36568715440289
C           64.22988805562626       -0.38023634573898        2.71470967812733
C           65.44795686613955       -0.29235756695981        3.37592925035895
C           65.46046900041770       -0.39759291172343        4.85299533021795
C           66.15656417329996       -1.43084049575673        5.48576085444305
C           66.16608048153499       -1.52233414022552        6.86540528102869
C           65.48479927653561       -0.57979353003163        7.63787588317157
C           65.52911822862141       -0.71698615740380        9.11365370662039
O           64.84052405200629        0.23438307565540        9.76185020765234
O           66.11988281689810       -1.58922645914254        9.69807985636606
C           64.78888541476817        0.45407482703426        7.01072255748622
C           64.77546506311762        0.54032539203468        5.62963833880786
C           66.65567145439697       -0.11816836874187        2.70965866359521
C           67.92683601356455       -0.00151667713262        3.36476306645003
C           68.86689188012606        0.03310323927382        2.39140438381331
C           68.16912632905625       -0.04535847087552        1.14354338967992
N           66.81482026919672       -0.09130323217316        1.35004026886311
N           64.03372471513472       -0.18533608766604        1.36928208092059
C           65.36914867721772        0.40909002513267       -4.92853540366163
C           65.65073860000878       -0.70178857788879       -5.72725371607023
C           65.63784562995320       -0.58999525827172       -7.10537741691358
C           65.34931553969795        0.63550731733787       -7.70872259896850
C           65.35224923573651        0.70567180678056       -9.18982533385937
O           65.07383337341297        1.92683431376319       -9.67020316297794
O           65.58025337733125       -0.22949472877725       -9.91424210403910
C           65.06974344119554        1.74781696034916       -6.91443128636671
C           65.07710567938862        1.63246257268288       -5.53499751396945
H           69.88146825160160       -0.15247109970913       -0.09465924720484
H           69.86773440364837       -0.33707107409010       -2.68412561921777
H           67.96353495328390       -0.09998683703311       -4.57884330231342
H           62.78499856277244        0.85266774800734       -4.44780573336975
H           60.91056762765334        0.70373835046276       -2.51672025986516
H           60.95623744750371       -0.70731668751233        2.51844651886782
H           62.86701938808113       -0.86780408953244        4.41409044882322
H           66.67609863300555       -2.17041970314461        4.88722012688164
H           66.69997101338029       -2.32420900680288        7.36345884625795
H           64.91935976836621        0.07502324061037       10.71642692883420
H           64.26098656241912        1.18918573904936        7.60657279440109
H           64.24445454648580        1.34996587431939        5.14190972013576
H           68.06855719616840        0.04745161979736        4.43214858589119
H           69.93839197983355        0.10506760727756        2.48937898249713
H           65.86559491493469       -1.65571430232778       -5.25934335641560
H           65.85027137000343       -1.44873191620010       -7.73269663819592
H           65.09654759226804        1.88809350677178      -10.64016476157957
H           64.84802355797299        2.70125202179651       -7.37910683385604
H           64.86987036515659        2.49860711523625       -4.91683642507695
C           42.05630684297316        0.00188913140849       -0.03611332962431
C           40.82752381066427        0.00052979647118       -0.03814028607791
C           39.48303724581201       -0.00146464396710       -0.03357632929130
C           38.25889263698001       -0.00309783254439       -0.02616320325933
C           43.40053844541114        0.00452092782486       -0.03356877422781
C           44.62498778641471        0.00536228769600       -0.02718494825761
C           58.03441256279483        0.01599569507905        0.01561654002549
C           56.80515498300421        0.01490205698477        0.01695590633308
C           55.46190902525257        0.01347873031289        0.01521697377683
C           54.23705959455314        0.00978206879474        0.01709640517680
C           59.37786999399649        0.01680285551026        0.01179160237975
C           60.60247839403726        0.01531175997538        0.00438467812300
Fe          49.43184665291984        0.00582342550875       -0.05444193301688
C           46.02812082725433        0.00617224238298       -0.01966042356600
C           46.70356403527800       -1.20362064204833       -0.22182489743385
C           46.05084928404051       -2.44725880851306       -0.48458418324538
C           47.00724663608307       -3.40710008080754       -0.43073576544127
C           48.23966470424158       -2.74508049239400       -0.12403531402636
N           48.04449518438960       -1.38854490944656       -0.05127068441974
C           49.43403980645392       -3.39575534647700        0.16544316677756
C           50.62519450863321       -2.71675083899448        0.39483699462186
C           51.86025711079668       -3.34593020086907        0.75612378358260
C           52.81513305764346       -2.38432933988286        0.71523655003480
N           50.81537640198717       -1.36938009219923        0.21012724344712
C           52.15896807946076       -1.17145492058029        0.34034433711296
C           52.83502393246565        0.01053558249615        0.01397569268605
C           52.16209551423474        1.19285115405233       -0.31913036881402
C           52.81835243569634        2.40379327977685       -0.69966730605078
C           51.86261795599525        3.36450833855877       -0.74922216785760
C           50.62682253771261        2.73647333690125       -0.38888570669176
C           49.43070758313092        3.41249281400639       -0.17644399892643
C           49.42987980718387        4.89016024025378       -0.25427903972825
C           50.24451137759493        5.64207986701756        0.59676418802829
C           50.23997204569280        7.02283499045217        0.52644023887505
C           49.42684227476221        7.67731452776760       -0.40074008972030
C           49.45893518561929        9.15951449655743       -0.43961898267786
O           48.64279819756332        9.68968120224698       -1.36256532475162
O           50.14329389654059        9.84342793688806        0.27806269829031
C           48.61525821644720        6.93109768750543       -1.25574541842593
C           48.61575371214217        5.54938642557275       -1.17899177985469
C           48.23568770692632        2.75926414417889        0.10439163782222
C           46.99735615335507        3.42129528497525        0.38702023738061
C           46.04200975272257        2.46032171595098        0.43203799329903
C           46.70088604239692        1.21593337973975        0.18830040872147
N           48.04647131319587        1.40041709561955        0.05315175754557
N           50.82017656131534        1.39369858023450       -0.17986356140001
C           49.43905051783788       -4.87433884486542        0.22453848942365
C           48.61921485195093       -5.55004670762104        1.13241961338969
C           48.62742311526653       -6.93169630092339        1.18447513993479
C           49.44933261711127       -7.66333012026881        0.32520235705032
C           49.41824940566761       -9.14349319574336        0.41453467828380
O           50.24081214704808       -9.75034929577437       -0.45378901389698
O           48.72896900583586       -9.76345735654380        1.18358261108710
C           50.26756219523735       -6.99346693148686       -0.58485072785820
C           50.26352385397777       -5.61045054426674       -0.63043326680104
H           44.99626707252074       -2.55768161073072       -0.67927461617811
H           46.89726338088873       -4.46795060334055       -0.58617450955526
H           51.97291789950798       -4.38809017310713        1.00675522666502
H           53.87146093424936       -2.47480808874159        0.91079916630596
H           53.87471922902914        2.49395316249804       -0.89520437614928
H           51.97488336860339        4.40457862667535       -1.00874873795163
H           50.86712715793923        5.13565777424655        1.32548612911736
H           50.86432248495232        7.61301707101860        1.18824883862086
H           48.72157729251833       10.65675060428245       -1.32412581995636
H           47.98596869727850        7.43510703966245       -1.97969243308502
H           47.99441868964750        4.96891193535513       -1.85159158266055
H           46.88280836613797        4.48328605058785        0.53074999367565
H           44.98378348764334        2.57013660176425        0.60617071472237
H           47.98940263196907       -4.98301457775298        1.80836555744405
H           47.99886894723724       -7.46286699711877        1.89073664776077
H           50.16178641983058      -10.71065132893264       -0.33345501936570
H           50.90419264917191       -7.55768507281570       -1.25597764307667
H           50.88979150331093       -5.08971422412685       -1.34596618624037

          :  Hamiltonian                  GFN1-xTB          :
         :: total energy            -374.682914416371 Eh    ::
         :: gradient norm              0.000501814242 Eh/a0 ::
         :: HOMO-LUMO gap              0.103654839838 eV    ::
         :: SCC energy              -380.310397838195 Eh    ::
         :: repulsion energy           5.803488853800 Eh    ::

    * Orbital Energies and Occupations

         #    Occupation            Energy/Eh            Energy/eV
      -------------------------------------------------------------
         1        2.0000           -0.8357801             -22.7427
       ...           ...                  ...                  ...
       322        2.0000           -0.4067473             -11.0682
       323        1.9994           -0.4033274             -10.9751
       324        1.9932           -0.4010541             -10.9132
       325        1.9930           -0.4010241             -10.9124
       326        1.9923           -0.4009347             -10.9100
       327        1.9883           -0.4005323             -10.8990
       328        1.9426           -0.3989996             -10.8573
       329        1.9336           -0.3988572             -10.8535
       330        1.9310           -0.3988197             -10.8524
       331        1.9268           -0.3987607             -10.8508
       332        1.9231           -0.3987120             -10.8495
       333        1.9187           -0.3986568             -10.8480
       334        1.7862           -0.3976710             -10.8212 (HOMO)
       335        0.2633           -0.3938617             -10.7175 (LUMO)
       336        0.2284           -0.3937079             -10.7133
       337        0.1801           -0.3934567             -10.7065
       338                         -0.3517436              -9.5714
       339                         -0.3440714              -9.3627
       340                         -0.3427900              -9.3278
       341                         -0.3427224              -9.3260
       342                         -0.3396812              -9.2432
       343                         -0.3393358              -9.2338
       344                         -0.3237597              -8.8099
       345                         -0.3164598              -8.6113
       ...                                ...                  ...
       691                          1.5626283              42.5213
      -------------------------------------------------------------
                  HL-Gap            0.0038092 Eh            0.1037 eV

Wiberg/Mayer (AO) data.
largest (>0.10) Wiberg bond orders for each atom

     #   Z sym  total        # sym  WBO       # sym  WBO       # sym  WBO
 ---------------------------------------------------------------------------
     1  26 Fe   3.244 --    33 N    0.686    12 N    0.680     7 N    0.678
                            34 N    0.672
     2   6 C    3.939 --    32 C    1.365     3 C    1.363    44 H    0.970
     3   6 C    3.922 --     2 C    1.363     7 N    1.208     4 C    1.172
     4   6 C    3.959 --     5 C    1.651     3 C    1.172    45 H    0.975
     5   6 C    3.961 --     4 C    1.651     6 C    1.174    46 H    0.973
     6   6 C    3.920 --     8 C    1.318     7 N    1.221     5 C    1.174
     7   7 N    3.391 --     6 C    1.221     3 C    1.208     1 Fe   0.678
     8   6 C    3.940 --     9 C    1.332     6 C    1.318    35 C    1.024
     9   6 C    3.915 --     8 C    1.332    12 N    1.201    10 C    1.179
    10   6 C    3.957 --    11 C    1.640     9 C    1.179    47 H    0.973
    11   6 C    3.960 --    10 C    1.640    13 C    1.187    48 H    0.973
    12   7 N    3.393 --    13 C    1.237     9 C    1.201     1 Fe   0.680
    13   6 C    3.905 --    14 C    1.260    12 N    1.237    11 C    1.187
    14   6 C    3.943 --    13 C    1.260    15 C    1.260   128 C    1.187
    15   6 C    3.905 --    14 C    1.260    34 N    1.235    16 C    1.188
    16   6 C    3.959 --    17 C    1.637    15 C    1.188    49 H    0.973
    17   6 C    3.958 --    16 C    1.637    18 C    1.180    50 H    0.973
    18   6 C    3.916 --    19 C    1.326    34 N    1.204    17 C    1.180
    19   6 C    3.941 --    18 C    1.326    29 C    1.319    20 C    1.031
    20   6 C    3.986 --    28 C    1.386    21 C    1.385    19 C    1.031
    21   6 C    3.987 --    22 C    1.464    20 C    1.385    51 H    0.972
                            27 C    0.103
    22   6 C    3.990 --    21 C    1.464    23 C    1.385    52 H    0.968
                            28 C    0.103
    23   6 C    3.983 --    27 C    1.389    22 C    1.385    24 C    1.009
    24   6 C    3.836 --    26 O    1.690    25 O    1.088    23 C    1.009
    25   8 O    2.097 --    24 C    1.088    53 H    0.838    26 O    0.129
    26   8 O    1.958 --    24 C    1.690    25 O    0.129
    27   6 C    3.991 --    28 C    1.461    23 C    1.389    54 H    0.969
                            21 C    0.103
    28   6 C    3.987 --    27 C    1.461    20 C    1.386    55 H    0.972
                            22 C    0.103
    29   6 C    3.921 --    19 C    1.319    33 N    1.221    30 C    1.173
    30   6 C    3.961 --    31 C    1.651    29 C    1.173    56 H    0.973
    31   6 C    3.959 --    30 C    1.651    32 C    1.172    57 H    0.975
    32   6 C    3.922 --     2 C    1.365    33 N    1.207    31 C    1.172
    33   7 N    3.393 --    29 C    1.221    32 C    1.207     1 Fe   0.686
    34   7 N    3.390 --    15 C    1.235    18 C    1.204     1 Fe   0.672
    35   6 C    3.986 --    43 C    1.389    36 C    1.387     8 C    1.024
    36   6 C    3.987 --    37 C    1.463    35 C    1.387    58 H    0.972
                            42 C    0.103
    37   6 C    3.990 --    36 C    1.463    38 C    1.386    59 H    0.968
                            43 C    0.103
    38   6 C    3.984 --    42 C    1.390    37 C    1.386    39 C    1.009
    39   6 C    3.836 --    41 O    1.690    40 O    1.088    38 C    1.009
    40   8 O    2.097 --    39 C    1.088    60 H    0.838    41 O    0.129
    41   8 O    1.959 --    39 C    1.690    40 O    0.129
    42   6 C    3.991 --    43 C    1.460    38 C    1.390    61 H    0.970
                            36 C    0.103
    43   6 C    3.988 --    42 C    1.460    35 C    1.389    62 H    0.972
                            37 C    0.103
    44   1 H    1.000 --     2 C    0.970
    45   1 H    0.997 --     4 C    0.975
    46   1 H    1.004 --     5 C    0.973
    47   1 H    1.004 --    10 C    0.973
    48   1 H    1.001 --    11 C    0.973
    49   1 H    1.001 --    16 C    0.973
    50   1 H    1.004 --    17 C    0.973
    51   1 H    1.004 --    21 C    0.972
    52   1 H    1.005 --    22 C    0.968
    53   1 H    0.873 --    25 O    0.838
    54   1 H    1.005 --    27 C    0.969
    55   1 H    1.004 --    28 C    0.972
    56   1 H    1.004 --    30 C    0.973
    57   1 H    0.997 --    31 C    0.975
    58   1 H    1.003 --    36 C    0.972
    59   1 H    1.005 --    37 C    0.968
    60   1 H    0.873 --    40 O    0.838
    61   1 H    1.005 --    42 C    0.970
    62   1 H    1.003 --    43 C    0.972
    63  26 Fe   3.212 --    95 N    0.682    74 N    0.675    69 N    0.675
                            96 N    0.668
    64   6 C    3.934 --    94 C    1.365    65 C    1.363   106 H    0.970
    65   6 C    3.922 --    64 C    1.363    69 N    1.208    66 C    1.172
    66   6 C    3.959 --    67 C    1.651    65 C    1.172   107 H    0.975
    67   6 C    3.961 --    66 C    1.651    68 C    1.174   108 H    0.973
    68   6 C    3.920 --    70 C    1.317    69 N    1.222    67 C    1.174
    69   7 N    3.387 --    68 C    1.222    65 C    1.208    63 Fe   0.675
    70   6 C    3.935 --    71 C    1.333    68 C    1.317    97 C    1.024
    71   6 C    3.916 --    70 C    1.333    74 N    1.200    72 C    1.179
    72   6 C    3.957 --    73 C    1.640    71 C    1.179   109 H    0.973
    73   6 C    3.960 --    72 C    1.640    75 C    1.187   110 H    0.973
    74   7 N    3.389 --    75 C    1.240    71 C    1.200    63 Fe   0.675
    75   6 C    3.904 --    76 C    1.257    74 N    1.240    73 C    1.187
    76   6 C    3.936 --    75 C    1.257    77 C    1.257   136 C    1.192
    77   6 C    3.904 --    76 C    1.257    96 N    1.237    78 C    1.188
    78   6 C    3.959 --    79 C    1.637    77 C    1.188   111 H    0.973
    79   6 C    3.957 --    78 C    1.637    80 C    1.180   112 H    0.973
    80   6 C    3.916 --    81 C    1.327    96 N    1.203    79 C    1.180
    81   6 C    3.935 --    80 C    1.327    91 C    1.317    82 C    1.031
    82   6 C    3.986 --    90 C    1.386    83 C    1.385    81 C    1.031
    83   6 C    3.986 --    84 C    1.464    82 C    1.385   113 H    0.972
                            89 C    0.103
    84   6 C    3.990 --    83 C    1.464    85 C    1.385   114 H    0.968
                            90 C    0.103
    85   6 C    3.983 --    89 C    1.389    84 C    1.385    86 C    1.009
    86   6 C    3.836 --    88 O    1.690    87 O    1.089    85 C    1.009
    87   8 O    2.097 --    86 C    1.089   115 H    0.838    88 O    0.129
    88   8 O    1.958 --    86 C    1.690    87 O    0.129
    89   6 C    3.991 --    90 C    1.461    85 C    1.389   116 H    0.969
                            83 C    0.103
    90   6 C    3.987 --    89 C    1.461    82 C    1.386   117 H    0.972
                            84 C    0.103
    91   6 C    3.920 --    81 C    1.317    95 N    1.222    92 C    1.174
    92   6 C    3.961 --    93 C    1.651    91 C    1.174   118 H    0.973
    93   6 C    3.959 --    92 C    1.651    94 C    1.172   119 H    0.975
    94   6 C    3.922 --    64 C    1.365    95 N    1.207    93 C    1.172
    95   7 N    3.389 --    91 C    1.222    94 C    1.207    63 Fe   0.682
    96   7 N    3.387 --    77 C    1.237    80 C    1.203    63 Fe   0.668
    97   6 C    3.986 --   105 C    1.389    98 C    1.387    70 C    1.024
    98   6 C    3.987 --    99 C    1.463    97 C    1.387   120 H    0.972
                           104 C    0.103
    99   6 C    3.990 --    98 C    1.463   100 C    1.386   121 H    0.968
                           105 C    0.103
   100   6 C    3.984 --   104 C    1.390    99 C    1.386   101 C    1.009
   101   6 C    3.836 --   103 O    1.690   102 O    1.088   100 C    1.009
   102   8 O    2.097 --   101 C    1.088   122 H    0.838   103 O    0.129
   103   8 O    1.959 --   101 C    1.690   102 O    0.129
   104   6 C    3.991 --   105 C    1.460   100 C    1.390   123 H    0.969
                            98 C    0.103
   105   6 C    3.988 --   104 C    1.460    97 C    1.389   124 H    0.972
                            99 C    0.103
   106   1 H    1.000 --    64 C    0.970
   107   1 H    0.997 --    66 C    0.975
   108   1 H    1.004 --    67 C    0.973
   109   1 H    1.004 --    72 C    0.973
   110   1 H    1.001 --    73 C    0.973
   111   1 H    1.001 --    78 C    0.973
   112   1 H    1.003 --    79 C    0.973
   113   1 H    1.004 --    83 C    0.972
   114   1 H    1.005 --    84 C    0.968
   115   1 H    0.873 --    87 O    0.838
   116   1 H    1.005 --    89 C    0.969
   117   1 H    1.004 --    90 C    0.972
   118   1 H    1.004 --    92 C    0.973
   119   1 H    0.997 --    93 C    0.975
   120   1 H    1.003 --    98 C    0.972
   121   1 H    1.005 --    99 C    0.968
   122   1 H    0.873 --   102 O    0.838
   123   1 H    1.005 --   104 C    0.969
   124   1 H    1.003 --   105 C    0.972
   125   6 C    3.917 --   126 C    2.362   129 C    1.336   128 C    0.187
   126   6 C    3.914 --   125 C    2.362   127 C    1.335   130 C    0.187
   127   6 C    3.928 --   128 C    2.445   126 C    1.335
   128   6 C    3.881 --   127 C    2.445    14 C    1.187   125 C    0.187
   129   6 C    3.923 --   130 C    2.441   125 C    1.336
   130   6 C    3.883 --   129 C    2.441   138 C    1.193   126 C    0.187
   131   6 C    3.914 --   132 C    2.355   135 C    1.340   134 C    0.186
   132   6 C    3.916 --   131 C    2.355   133 C    1.341   136 C    0.187
   133   6 C    3.922 --   134 C    2.435   132 C    1.341
   134   6 C    3.882 --   133 C    2.435   150 C    1.197   131 C    0.186
   135   6 C    3.926 --   136 C    2.438   131 C    1.340
   136   6 C    3.880 --   135 C    2.438    76 C    1.192   132 C    0.187
   137  26 Fe   3.223 --   169 N    0.675   148 N    0.675   143 N    0.662
                           170 N    0.662
   138   6 C    3.929 --   168 C    1.257   139 C    1.254   130 C    1.193
   139   6 C    3.905 --   138 C    1.254   143 N    1.237   140 C    1.190
   140   6 C    3.959 --   141 C    1.634   139 C    1.190   180 H    0.973
   141   6 C    3.959 --   140 C    1.634   142 C    1.183   181 H    0.973
   142   6 C    3.914 --   144 C    1.319   143 N    1.205   141 C    1.183
   143   7 N    3.378 --   139 C    1.237   142 C    1.205   137 Fe   0.662
   144   6 C    3.932 --   145 C    1.322   142 C    1.319   171 C    1.034
   145   6 C    3.914 --   144 C    1.322   148 N    1.203   146 C    1.182
   146   6 C    3.958 --   147 C    1.635   145 C    1.182   182 H    0.973
   147   6 C    3.959 --   146 C    1.635   149 C    1.189   183 H    0.973
   148   7 N    3.383 --   149 C    1.238   145 C    1.203   137 Fe   0.675
   149   6 C    3.904 --   150 C    1.255   148 N    1.238   147 C    1.189
   150   6 C    3.928 --   149 C    1.255   151 C    1.252   134 C    1.197
   151   6 C    3.905 --   150 C    1.252   170 N    1.239   152 C    1.190
   152   6 C    3.959 --   153 C    1.634   151 C    1.190   184 H    0.973
   153   6 C    3.959 --   152 C    1.634   154 C    1.182   185 H    0.973
   154   6 C    3.914 --   155 C    1.320   170 N    1.204   153 C    1.182
   155   6 C    3.932 --   154 C    1.320   165 C    1.320   156 C    1.034
   156   6 C    3.986 --   164 C    1.385   157 C    1.383   155 C    1.034
   157   6 C    3.986 --   158 C    1.464   156 C    1.383   186 H    0.972
                           163 C    0.103
   158   6 C    3.990 --   157 C    1.464   159 C    1.385   187 H    0.968
                           164 C    0.103
   159   6 C    3.982 --   163 C    1.389   158 C    1.385   160 C    1.008
   160   6 C    3.836 --   162 O    1.691   161 O    1.089   159 C    1.008
   161   8 O    2.097 --   160 C    1.089   188 H    0.838   162 O    0.129
   162   8 O    1.959 --   160 C    1.691   161 O    0.129
   163   6 C    3.991 --   164 C    1.462   159 C    1.389   189 H    0.969
                           157 C    0.103
   164   6 C    3.986 --   163 C    1.462   156 C    1.385   190 H    0.972
                           158 C    0.103
   165   6 C    3.914 --   155 C    1.320   169 N    1.205   166 C    1.182
   166   6 C    3.959 --   167 C    1.635   165 C    1.182   191 H    0.973
   167   6 C    3.959 --   166 C    1.635   168 C    1.190   192 H    0.973
   168   6 C    3.905 --   138 C    1.257   169 N    1.236   167 C    1.190
   169   7 N    3.384 --   168 C    1.236   165 C    1.205   137 Fe   0.675
   170   7 N    3.377 --   151 C    1.239   154 C    1.204   137 Fe   0.662
   171   6 C    3.986 --   179 C    1.385   172 C    1.384   144 C    1.034
   172   6 C    3.986 --   173 C    1.464   171 C    1.384   193 H    0.972
                           178 C    0.103
   173   6 C    3.990 --   172 C    1.464   174 C    1.386   194 H    0.968
                           179 C    0.103
   174   6 C    3.982 --   178 C    1.389   173 C    1.386   175 C    1.008
   175   6 C    3.836 --   177 O    1.691   176 O    1.089   174 C    1.008
   176   8 O    2.097 --   175 C    1.089   195 H    0.838   177 O    0.129
   177   8 O    1.959 --   175 C    1.691   176 O    0.129
   178   6 C    3.991 --   179 C    1.462   174 C    1.389   196 H    0.969
                           172 C    0.103
   179   6 C    3.986 --   178 C    1.462   171 C    1.385   197 H    0.972
                           173 C    0.103
   180   1 H    1.001 --   140 C    0.973
   181   1 H    1.003 --   141 C    0.973
   182   1 H    1.003 --   146 C    0.973
   183   1 H    1.001 --   147 C    0.973
   184   1 H    1.001 --   152 C    0.973
   185   1 H    1.003 --   153 C    0.973
   186   1 H    1.004 --   157 C    0.972
   187   1 H    1.005 --   158 C    0.968
   188   1 H    0.873 --   161 O    0.838
   189   1 H    1.005 --   163 C    0.969
   190   1 H    1.004 --   164 C    0.972
   191   1 H    1.003 --   166 C    0.973
   192   1 H    1.001 --   167 C    0.973
   193   1 H    1.004 --   172 C    0.972
   194   1 H    1.005 --   173 C    0.968
   195   1 H    0.872 --   176 O    0.838
   196   1 H    1.005 --   178 C    0.969
   197   1 H    1.004 --   179 C    0.972
 ---------------------------------------------------------------------------

           -------------------------------------------------
          | TOTAL ENERGY             -374.682914416371 Eh   |
          | GRADIENT NORM               0.000501814242 Eh/α |
          | HOMO-LUMO GAP               0.103654839838 eV   |
           -------------------------------------------------

 * finished run on 2022/07/29 at 22:11:01.770
