   * xtb version 6.5.1 (b24c23e) compiled by 'conda@728c89f4b128' on 2022-07-12
          program call               : xtb Zn_H_C2_3.xyz --gfn 1 --opt -T 48

   ID    Z sym.   atoms
    1   30 Zn     1, 37, 77
    2    6 C      2-6, 8-11, 13-18, 20-24, 38-42, 44-47, 49-54, 56-60, 73-76,
                  78-82, 84-87, 89-94, 96-100
    3    7 N      7, 12, 19, 25, 43, 48, 55, 61, 83, 88, 95, 101
    4    1 H      26-36, 62-72, 102-111

          :  Hamiltonian                  GFN1-xTB          :
 * total energy  :  -192.2902231 Eh     change       -0.2768843E-09 Eh
 * total energy  :  -192.7487957 Eh     change       -0.4585726E+00 Eh
 * total energy  :  -192.9052226 Eh     change       -0.1564269E+00 Eh
 * total energy  :  -193.0196398 Eh     change       -0.1144173E+00 Eh
 * total energy  :  -193.0678340 Eh     change       -0.4819418E-01 Eh
 * total energy  :  -193.0876443 Eh     change       -0.1981029E-01 Eh
 * total energy  :  -193.0985118 Eh     change       -0.1086749E-01 Eh
 * total energy  :  -193.1042280 Eh     change       -0.5716167E-02 Eh
 * total energy  :  -193.1088299 Eh     change       -0.4601909E-02 Eh
 * total energy  :  -193.1132440 Eh     change       -0.4414162E-02 Eh
 * total energy  :  -193.1317698 Eh     change       -0.1607185E-04 Eh
 * total energy  :  -193.1317836 Eh     change       -0.1381651E-04 Eh
 * total energy  :  -193.1317962 Eh     change       -0.1254790E-04 Eh
 * total energy  :  -193.1318078 Eh     change       -0.1160152E-04 Eh
 * total energy  :  -193.1318195 Eh     change       -0.1170777E-04 Eh
 * total energy  :  -193.1318308 Eh     change       -0.1129015E-04 Eh
 * total energy  :  -193.1318392 Eh     change       -0.8414698E-05 Eh
 * total energy  :  -193.1318445 Eh     change       -0.5340056E-05 Eh
 * total energy  :  -193.1318479 Eh     change       -0.3353540E-05 Eh
   *** GEOMETRY OPTIMIZATION CONVERGED AFTER 67 ITERATIONS ***

 final structure:
================
111
 xtb: 6.5.1 (b24c23e)
Zn          18.67807362270747       -0.02794152588816       -0.01894834457272
C           15.24791487998619       -0.03976464587609       -0.03618778814266
C           15.87980860107550       -0.83902485202052       -0.98263689692199
C           15.21526876373499       -1.66216914141833       -1.95784116776053
C           16.18153340706494       -2.27140423196865       -2.68969577653016
C           17.44735511805661       -1.82810684005448       -2.16959889711640
N           17.22919837138569       -0.96395220200144       -1.13732225291552
C           18.69569870135783       -2.21279723447200       -2.64569282911717
C           19.93601693983153       -1.80609815751823       -2.16801973063598
C           21.20322951117562       -2.21960303812571       -2.70186046646242
C           22.16339319408578       -1.60542703703068       -1.96442750331761
N           20.14943391690525       -0.95207219054045       -1.11999695998120
C           21.49379635016108       -0.81494520924399       -0.97049180147227
C           22.13566201472567       -0.01952215548608        0.00091721695986
C           21.47915799787510        0.77377408934707        0.96411432606475
C           22.13373089728702        1.56846961321561        1.96469734469133
C           21.16223098767282        2.17926756168794        2.69004701724608
C           19.90312864631733        1.75915612190405        2.14221608581379
N           20.13257430304370        0.90475290519767        1.09794597706107
C           18.65518049877885        2.15990618015541        2.60488551613308
C           17.41441486522526        1.76659582587938        2.11606905832625
C           16.14051075311095        2.20186227570576        2.62298761847263
C           15.18567857143939        1.58421694618395        1.88318871122198
C           15.86535443100415        0.76450065909823        0.91561549176402
N           17.21230406572269        0.89921161664700        1.08314560192880
H           14.16235211202190       -0.04373187523240       -0.04106746829697
H           14.14475799411819       -1.75245082984269       -2.05853559367083
H           16.06209280593644       -2.96141517811041       -3.51060833459646
H           18.70364620064997       -2.90403842563299       -3.48296715106986
H           21.33067112184906       -2.89152905901903       -3.53622578380457
H           23.23302081553705       -1.67155014077142       -2.08196853409573
H           23.20178394940814        1.63999669841442        2.09372555935018
H           21.27684662626645        2.85278857073711        3.52497724775381
H           18.64958368565432        2.85265728208330        3.44094848225148
H           16.00823940215945        2.89258625495162        3.44132192147081
H           14.11363107548589        1.66679619352210        1.97353648310762
Zn          40.59321198812219        0.00986589697721       -0.01243146991555
C           44.02272495366646        0.02522284036619        0.01540211523432
C           43.39202530985123        1.26013364322653        0.12107118506215
C           44.05778905298266        2.53009741056215        0.23977460187781
C           43.09253056082482        3.48060346236506        0.31263588417672
C           41.82607108168934        2.80231992327470        0.24011616548523
N           42.04290375218141        1.46070257547052        0.12547320514815
C           40.57845179006981        3.41486398897550        0.27675945435427
C           39.33754753253757        2.79209587669872        0.21096122872145
C           38.07069309952615        3.46753212149434        0.24149102465064
C           37.10986420281160        2.51237945551325        0.15466305522518
N           39.12337690772718        1.44438564170172        0.10658003589676
C           37.77900811451618        1.24465029524679        0.07399390251502
C           37.13665531347060       -0.00586874337049       -0.03183876690377
C           37.79117766425727       -1.25025959967354       -0.13427248405771
C           37.13450261575055       -2.52378374185818       -0.22599082487541
C           38.10498789730058       -3.46983274976257       -0.30501589388866
C           39.36524256127551       -2.78299450417704       -0.25766036224094
N           39.13758259479548       -1.43757254850645       -0.15274917609687
C           40.61268418315620       -3.39405020832127       -0.30794494025575
C           41.85399715944450       -2.77028423194604       -0.25062595036480
C           43.12738972875171       -3.43732604257006       -0.30337941381031
C           44.08297074245019       -2.47872026798328       -0.21168487990450
C           43.40431583358593       -1.21483022420882       -0.10188299868026
N           42.05720167035550       -1.42708992909317       -0.12949145229791
H           45.10825645808362        0.02969757419166        0.02487018801337
H           45.12837236450092        2.66269088657878        0.26271027720798
H           43.21307835888788        4.54867086124458        0.40741488458712
H           40.57173784897505        4.49706308705402        0.36466162014164
H           37.94404256025356        4.53624408566955        0.31694777256789
H           36.04019147259540        2.64709279458391        0.13892232476592
H           36.06590392682631       -2.66802269809729       -0.22367491656123
H           37.98902491651866       -4.53944053351510       -0.38504185227109
H           40.61737771611899       -4.47603115819016       -0.39861830554861
H           43.25886534975308       -4.50404568851277       -0.39864759649968
H           45.15491381396724       -2.60195136930816       -0.21647711469844
C           23.54569176599180       -0.01757813126007        0.00914966723150
C           24.76303093321161       -0.01937976216569        0.01228305620705
C           34.50944565590385       -0.01716479652583       -0.03140408462729
C           35.72661078976107       -0.01208754656558       -0.03299887545768
Zn          29.63646823392672       -0.02058006535174       -0.00464945329753
C           26.17268979546873       -0.02054895870352        0.01235604057142
C           26.82574116766358        1.08116587717815        0.60219850218313
C           26.16789669802273        2.21241483103363        1.19174329062569
C           27.13733190401378        3.04586494876241        1.64917828267396
C           28.39727666128976        2.43309716505701        1.33762787135972
N           28.17192326063526        1.24318569531461        0.70032597296247
C           29.64426936197246        2.96616546203242        1.64068834043242
C           30.88826787578458        2.42028127965520        1.34835769111100
C           32.15158027016916        3.00596786768431        1.69631899440893
C           33.11645909101968        2.17116650818237        1.23174492034861
N           31.10699300068348        1.24539065117683        0.68159653867198
C           32.45222057325321        1.07115064515943        0.59225898952307
C           33.09981465335163       -0.01877229024510       -0.02463412462469
C           32.44705375578300       -1.10981011840213       -0.63374656789875
C           33.10535530135472       -2.20987642384008       -1.27939631346606
C           32.13612295873324       -3.04640966313603       -1.73171932295403
C           30.87619252012806       -2.46176394666127       -1.36978607231363
N           31.10115246545562       -1.28566746840812       -0.70736939278064
C           29.62931140993652       -3.00958935418394       -1.64562755589991
C           28.38564066193112       -2.47706891169674       -1.32831104748986
C           27.12286634446555       -3.09199138978540       -1.62341673680582
C           26.15798620450321       -2.25750877355307       -1.15836674732060
C           26.82129010176866       -1.12374844445685       -0.57998388597209
N           28.16643167357055       -1.28556746030423       -0.69166887270641
H           25.09940018316991        2.34772044524833        1.24105317494583
H           27.02032285985286        3.99388965875928        2.15059774768607
H           29.64700543119007        3.91704619573672        2.16509201143384
H           32.27385784483837        3.93516660390624        2.23060352309456
H           34.18571892646709        2.28076163682912        1.31660676875040
H           34.17381127247043       -2.31848386316604       -1.37577025521201
H           32.25312455026238       -3.97622591435226       -2.26617022248864
H           29.62629887744761       -3.96155252438988       -2.16809855683856
H           27.00080448643524       -4.04199751589653       -2.11984155146810
H           25.08925218168640       -2.39465315533043       -1.19396265058415

          :  Hamiltonian                  GFN1-xTB          :
         :: total energy            -193.131847869089 Eh    ::
         :: gradient norm              0.000284708479 Eh/a0 ::
         :: HOMO-LUMO gap              0.965651748425 eV    ::
         :: SCC energy              -196.170312170417 Eh    ::
         :: repulsion energy           3.138300562824 Eh    ::

    * Orbital Energies and Occupations

         #    Occupation            Energy/Eh            Energy/eV
      -------------------------------------------------------------
         1        2.0000           -0.7572660             -20.6063
       ...           ...                  ...                  ...
       165        2.0000           -0.4185650             -11.3897
       166        2.0000           -0.4184345             -11.3862
       167        2.0000           -0.4183882             -11.3849
       168        2.0000           -0.4179158             -11.3721
       169        2.0000           -0.4176551             -11.3650
       170        2.0000           -0.4176454             -11.3647
       171        2.0000           -0.4155580             -11.3079
       172        2.0000           -0.3922044             -10.6724
       173        2.0000           -0.3909085             -10.6372
       174        2.0000           -0.3903946             -10.6232
       175        2.0000           -0.3903930             -10.6231
       176        2.0000           -0.3826430             -10.4122
       177        2.0000           -0.3722494             -10.1294 (HOMO)
       178                         -0.3367624              -9.1638 (LUMO)
       179                         -0.3254117              -8.8549
       180                         -0.3231807              -8.7942
       181                         -0.3228582              -8.7854
       182                         -0.3228572              -8.7854
       183                         -0.3148195              -8.5667
       184                         -0.2931123              -7.9760
       185                         -0.2851305              -7.7588
       186                         -0.2804649              -7.6318
       187                         -0.2204410              -5.9985
       188                         -0.2199785              -5.9859
       ...                                ...                  ...
       380                          1.3429634              36.5439
      -------------------------------------------------------------
                  HL-Gap            0.0354870 Eh            0.9657 eV

Wiberg/Mayer (AO) data.
largest (>0.10) Wiberg bond orders for each atom

     #   Z sym  total        # sym  WBO       # sym  WBO       # sym  WBO
 ---------------------------------------------------------------------------
     1  30 Zn   1.998 --    25 N    0.461     7 N    0.460    12 N    0.457
                            19 N    0.457
     2   6 C    3.932 --     3 C    1.358    24 C    1.358    26 H    0.972
     3   6 C    3.922 --     2 C    1.358     7 N    1.239     4 C    1.166
     4   6 C    3.960 --     5 C    1.665     3 C    1.166    27 H    0.976
     5   6 C    3.963 --     4 C    1.665     6 C    1.166    28 H    0.976
     6   6 C    3.920 --     8 C    1.356     7 N    1.238     5 C    1.166
     7   7 N    3.296 --     3 C    1.239     6 C    1.238     1 Zn   0.460
     8   6 C    3.938 --     9 C    1.363     6 C    1.356    29 H    0.972
     9   6 C    3.914 --     8 C    1.363    12 N    1.222    10 C    1.174
    10   6 C    3.959 --    11 C    1.651     9 C    1.174    30 H    0.976
    11   6 C    3.962 --    10 C    1.651    13 C    1.181    31 H    0.970
    12   7 N    3.300 --    13 C    1.266     9 C    1.222     1 Zn   0.457
    13   6 C    3.907 --    12 N    1.266    14 C    1.259    11 C    1.181
    14   6 C    3.944 --    15 C    1.260    13 C    1.259    73 C    1.178
    15   6 C    3.907 --    19 N    1.266    14 C    1.260    16 C    1.181
    16   6 C    3.962 --    17 C    1.651    15 C    1.181    32 H    0.970
    17   6 C    3.959 --    16 C    1.651    18 C    1.174    33 H    0.976
    18   6 C    3.914 --    20 C    1.363    19 N    1.222    17 C    1.174
    19   7 N    3.300 --    15 C    1.266    18 C    1.222     1 Zn   0.457
    20   6 C    3.938 --    18 C    1.363    21 C    1.356    34 H    0.972
    21   6 C    3.920 --    20 C    1.356    25 N    1.238    22 C    1.167
    22   6 C    3.963 --    23 C    1.665    21 C    1.167    35 H    0.976
    23   6 C    3.960 --    22 C    1.665    24 C    1.166    36 H    0.976
    24   6 C    3.922 --     2 C    1.358    25 N    1.239    23 C    1.166
    25   7 N    3.297 --    24 C    1.239    21 C    1.238     1 Zn   0.461
    26   1 H    1.002 --     2 C    0.972
    27   1 H    0.998 --     4 C    0.976
    28   1 H    0.998 --     5 C    0.976
    29   1 H    1.002 --     8 C    0.972
    30   1 H    0.998 --    10 C    0.976
    31   1 H    1.006 --    11 C    0.970
    32   1 H    1.006 --    16 C    0.970
    33   1 H    0.998 --    17 C    0.976
    34   1 H    1.002 --    20 C    0.972
    35   1 H    0.998 --    22 C    0.976
    36   1 H    0.998 --    23 C    0.976
    37  30 Zn   1.998 --    61 N    0.461    43 N    0.460    48 N    0.457
                            55 N    0.456
    38   6 C    3.933 --    60 C    1.358    39 C    1.358    62 H    0.972
    39   6 C    3.922 --    38 C    1.358    43 N    1.239    40 C    1.166
    40   6 C    3.960 --    41 C    1.665    39 C    1.166    63 H    0.976
    41   6 C    3.963 --    40 C    1.665    42 C    1.167    64 H    0.976
    42   6 C    3.920 --    44 C    1.356    43 N    1.238    41 C    1.167
    43   7 N    3.296 --    39 C    1.239    42 C    1.238    37 Zn   0.460
    44   6 C    3.938 --    45 C    1.363    42 C    1.356    65 H    0.972
    45   6 C    3.914 --    44 C    1.363    48 N    1.222    46 C    1.174
    46   6 C    3.959 --    47 C    1.652    45 C    1.174    66 H    0.976
    47   6 C    3.962 --    46 C    1.652    49 C    1.181    67 H    0.970
    48   7 N    3.300 --    49 C    1.266    45 C    1.222    37 Zn   0.457
    49   6 C    3.907 --    48 N    1.266    50 C    1.260    47 C    1.181
    50   6 C    3.944 --    51 C    1.260    49 C    1.260    76 C    1.177
    51   6 C    3.907 --    55 N    1.266    50 C    1.260    52 C    1.181
    52   6 C    3.962 --    53 C    1.652    51 C    1.181    68 H    0.970
    53   6 C    3.959 --    52 C    1.652    54 C    1.174    69 H    0.976
    54   6 C    3.914 --    56 C    1.363    55 N    1.222    53 C    1.174
    55   7 N    3.300 --    51 C    1.266    54 C    1.222    37 Zn   0.456
    56   6 C    3.938 --    54 C    1.363    57 C    1.356    70 H    0.972
    57   6 C    3.920 --    56 C    1.356    61 N    1.238    58 C    1.167
    58   6 C    3.963 --    59 C    1.665    57 C    1.167    71 H    0.976
    59   6 C    3.960 --    58 C    1.665    60 C    1.166    72 H    0.976
    60   6 C    3.922 --    38 C    1.358    61 N    1.239    59 C    1.166
    61   7 N    3.297 --    60 C    1.239    57 C    1.238    37 Zn   0.461
    62   1 H    1.002 --    38 C    0.972
    63   1 H    0.998 --    40 C    0.976
    64   1 H    0.998 --    41 C    0.976
    65   1 H    1.002 --    44 C    0.972
    66   1 H    0.998 --    46 C    0.976
    67   1 H    1.006 --    47 C    0.970
    68   1 H    1.006 --    52 C    0.970
    69   1 H    0.998 --    53 C    0.976
    70   1 H    1.002 --    56 C    0.972
    71   1 H    0.998 --    58 C    0.976
    72   1 H    0.998 --    59 C    0.976
    73   6 C    3.932 --    74 C    2.576    14 C    1.178
    74   6 C    3.934 --    73 C    2.576    78 C    1.180
    75   6 C    3.934 --    76 C    2.576    90 C    1.179
    76   6 C    3.932 --    75 C    2.576    50 C    1.177
    77  30 Zn   1.995 --   101 N    0.457    88 N    0.457    83 N    0.457
                            95 N    0.457
    78   6 C    3.932 --    79 C    1.258   100 C    1.257    74 C    1.180
    79   6 C    3.908 --    83 N    1.266    78 C    1.258    80 C    1.183
    80   6 C    3.961 --    81 C    1.649    79 C    1.183   102 H    0.970
    81   6 C    3.960 --    80 C    1.649    82 C    1.176   103 H    0.976
    82   6 C    3.913 --    84 C    1.360    83 N    1.221    81 C    1.176
    83   7 N    3.294 --    79 C    1.266    82 C    1.221    77 Zn   0.457
    84   6 C    3.933 --    82 C    1.360    85 C    1.360   104 H    0.971
    85   6 C    3.913 --    84 C    1.360    88 N    1.220    86 C    1.176
    86   6 C    3.960 --    87 C    1.649    85 C    1.176   105 H    0.976
    87   6 C    3.961 --    86 C    1.649    89 C    1.183   106 H    0.970
    88   7 N    3.294 --    89 C    1.266    85 C    1.220    77 Zn   0.457
    89   6 C    3.908 --    88 N    1.266    90 C    1.258    87 C    1.183
    90   6 C    3.932 --    91 C    1.258    89 C    1.258    75 C    1.179
    91   6 C    3.908 --    95 N    1.266    90 C    1.258    92 C    1.183
    92   6 C    3.961 --    93 C    1.649    91 C    1.183   107 H    0.970
    93   6 C    3.960 --    92 C    1.649    94 C    1.176   108 H    0.976
    94   6 C    3.913 --    96 C    1.360    95 N    1.221    93 C    1.176
    95   7 N    3.294 --    91 C    1.266    94 C    1.221    77 Zn   0.457
    96   6 C    3.933 --    97 C    1.360    94 C    1.360   109 H    0.971
    97   6 C    3.913 --    96 C    1.360   101 N    1.220    98 C    1.176
    98   6 C    3.960 --    99 C    1.649    97 C    1.176   110 H    0.976
    99   6 C    3.961 --    98 C    1.649   100 C    1.183   111 H    0.970
   100   6 C    3.908 --   101 N    1.266    78 C    1.257    99 C    1.183
   101   7 N    3.294 --   100 C    1.266    97 C    1.220    77 Zn   0.457
   102   1 H    1.006 --    80 C    0.970
   103   1 H    0.998 --    81 C    0.976
   104   1 H    1.002 --    84 C    0.971
   105   1 H    0.998 --    86 C    0.976
   106   1 H    1.006 --    87 C    0.970
   107   1 H    1.005 --    92 C    0.970
   108   1 H    0.998 --    93 C    0.976
   109   1 H    1.002 --    96 C    0.971
   110   1 H    0.998 --    98 C    0.976
   111   1 H    1.006 --    99 C    0.970
 ---------------------------------------------------------------------------

           -------------------------------------------------
          | TOTAL ENERGY             -193.131847869089 Eh   |
          | GRADIENT NORM               0.000284708479 Eh/α |
          | HOMO-LUMO GAP               0.965651748425 eV   |
           -------------------------------------------------

 * finished run on 2022/07/30 at 06:55:30.748
