   * xtb version 6.5.1 (b24c23e) compiled by 'conda@728c89f4b128' on 2022-07-12
          program call               : xtb Fe_NMA_C6_3.xyz --gfn 1 --opt -T 48

   ID    Z sym.   atoms
    1   26 Fe     1, 67, 145
    2    6 C      2-6, 8-12, 14-19, 21-26, 28-32, 34-40, 68-72, 74-78, 80-85,
                  87-92, 94-98, 100-106, 133-144, 146-150, 152-156, 158-163,
                  165-170, 172-176, 178-184
    3    7 N      7, 13, 20, 27, 33, 41, 73, 79, 86, 93, 99, 107, 151, 157,
                  164, 171, 177, 185
    4    1 H      42-66, 108-132, 186-209

          :  Hamiltonian                  GFN1-xTB          :
 * total energy  :  -324.4600119 Eh     change       -0.3209550E-08 Eh
 * total energy  :  -341.1316272 Eh     change       -0.1667162E+02 Eh
 * total energy  :  -343.1580389 Eh     change       -0.2026412E+01 Eh
 * total energy  :  -344.4696259 Eh     change       -0.1311587E+01 Eh
 * total energy  :  -345.1218722 Eh     change       -0.6522464E+00 Eh
 * total energy  :  -345.4863175 Eh     change       -0.3644452E+00 Eh
 * total energy  :  -345.7290542 Eh     change       -0.2427367E+00 Eh
 * total energy  :  -345.9163924 Eh     change       -0.1873382E+00 Eh
 * total energy  :  -346.0726242 Eh     change       -0.1562318E+00 Eh
 * total energy  :  -346.2097238 Eh     change       -0.1370996E+00 Eh
 * total energy  :  -347.1098815 Eh     change       -0.1569717E-04 Eh
 * total energy  :  -347.1098944 Eh     change       -0.1296523E-04 Eh
 * total energy  :  -347.1099044 Eh     change       -0.9994716E-05 Eh
 * total energy  :  -347.1099108 Eh     change       -0.6367817E-05 Eh
 * total energy  :  -347.1099163 Eh     change       -0.5530571E-05 Eh
 * total energy  :  -347.1099222 Eh     change       -0.5834284E-05 Eh
 * total energy  :  -347.1099181 Eh     change        0.4017628E-05 Eh
 * total energy  :  -347.1099235 Eh     change       -0.5362363E-05 Eh
 * total energy  :  -347.1099273 Eh     change       -0.3792408E-05 Eh
   *** GEOMETRY OPTIMIZATION CONVERGED AFTER 96 ITERATIONS ***

 final structure:
================
209
 xtb: 6.5.1 (b24c23e)
Fe          33.52227707753175        0.04738073258158       -0.02902728107857
C           30.14320376763349        0.14851490883482       -0.13572751911859
C           30.78154515403330        0.90015402892664        0.83014769473625
C           30.09941043522171        1.68246186179844        1.81563850782875
C           31.05092360685153        2.36976706618460        2.49210861804256
C           32.31215097622189        2.01992008282960        1.90545969401937
N           32.13683800043970        1.07992045295148        0.92697143870507
C           33.52470803346390        2.62003007146038        2.23800557446468
C           33.52825731018504        3.72646452915650        3.21791547519734
C           32.76186798270275        4.87664748175753        3.00522715256844
C           32.77634031421691        5.91450894019747        3.91687605703649
C           33.55299356784872        5.83009116548074        5.07966725448762
N           33.49164965074931        6.87090511303326        5.99200881581601
C           34.57985986398813        7.06939138772502        6.93945175226178
C           34.30751818690301        4.67484674276555        5.30625675975463
C           34.29908220136976        3.64667088559313        4.38001009382683
C           34.73220987881290        2.22102255280186        1.67772326329808
C           35.98747271010452        2.86457251743043        1.92755501259334
C           36.93829552749383        2.12327118730382        1.30757314780917
N           34.91391587714492        1.12837542144430        0.86418099647103
C           36.26049812336552        1.03673318545388        0.67407926622200
C           36.92341483212639       -0.02527094739652        0.04430299503646
C           36.24424134068294       -1.06670494671900       -0.60253078163697
C           36.90162165191787       -2.18999511579412       -1.19180248725090
C           35.94544795647047       -2.90669649535482       -1.83225259741002
C           34.70894293225670       -2.20775209032847       -1.64506856667153
N           34.90341392837787       -1.10855563499734       -0.84271450174381
C           33.51205531788754       -2.55884583989590       -2.25718456551718
C           33.50357624254243       -3.68600141423784       -3.21326881691248
C           34.33147235203752       -3.67665357867126       -4.33811374744153
C           34.32454363995839       -4.72519970647089       -5.24139183152459
C           33.49500314216763       -5.83043075632665       -5.02801857443461
N           33.41636541858879       -6.88681935543784       -5.92101307879033
C           34.53619664534913       -7.17117636876358       -6.80787719667771
C           32.66049818910876       -5.84369945739780       -3.90292266477548
C           32.66262600554842       -4.78561184764844       -3.01481682091670
C           32.31835919420665       -1.88508013623642       -2.00619049414474
C           31.07824621545584       -2.16751894168083       -2.66917638110302
C           30.13105935771431       -1.40550643499114       -2.07124175826889
C           30.79547720385274       -0.64989350359945       -1.05330304056354
N           32.13996432548389       -0.91749863049418       -1.05607097554414
H           29.06005503395046        0.18340178359854       -0.17249855456313
H           29.03037344081535        1.69077159130208        1.95851198917370
H           30.92121460521875        3.05027304875719        3.31801427061893
H           32.17133412908111        4.96534669820274        2.09994267125282
H           32.18552809581868        6.80592159165817        3.73407227095232
H           33.17134928879658        7.73882863059571        5.58018393514604
H           35.55130243702556        7.11244941785874        6.43388883856918
H           34.59148327517229        6.25983326209661        7.67049691590367
H           34.40381117380949        8.00923960114986        7.46262368432045
H           34.90127317853664        4.57152933597252        6.20615620874045
H           34.88130638519676        2.75191707369412        4.57191206103488
H           36.11579785250196        3.77103587882973        2.49648512567659
H           38.00386110025403        2.28472885512398        1.27583903805752
H           37.95792432589673       -2.39252572731020       -1.11590005852559
H           36.05844752476667       -3.82902791097749       -2.37848666094899
H           34.97166408340746       -2.82042927742713       -4.52090040160635
H           34.96463672569572       -4.67639735968364       -6.11372064922307
H           33.02552158344475       -7.72466497105362       -5.50772450925240
H           34.63281969978731       -6.38082745488494       -7.55346935746759
H           34.32978378900806       -8.11076358501353       -7.32031713543325
H           35.47696510206325       -7.26008301677274       -6.25275475262175
H           32.01090728257227       -6.69551027372256       -3.73104594020671
H           32.02472556478665       -4.81864177602768       -2.13837698997534
H           30.95962544884834       -2.85609107070855       -3.49005863225962
H           29.07561338764714       -1.34844465309193       -2.28593082527760
Fe          65.46332425220231        0.03402393267638       -0.06362220494175
C           68.84492025421284        0.09055772441554       -0.14452447078825
C           68.20496181624208       -1.00992507062895       -0.67806772100592
C           68.88639305678589       -2.14561039759038       -1.22067118995649
C           67.93519064559041       -2.95328562584139       -1.74797073537735
C           66.67513422543844       -2.29898232769141       -1.54420970729189
N           66.85033340923337       -1.13770134565802       -0.84218077530000
C           65.46470235935743       -2.75196440450665       -2.06386831786137
C           65.46285502812343       -3.95528246265176       -2.92261588706521
C           66.23276292929594       -4.00567679623792       -4.08880069209096
C           66.22047699606938       -5.12662249493655       -4.89619828023980
C           65.44267796720357       -6.24077557480342       -4.55570498739262
N           65.50676430744402       -7.36329016855353       -5.36549473288557
C           64.41803939168959       -8.33061008038349       -5.35064409543469
C           64.68429784511521       -6.20256692691148       -3.38159918830287
C           64.69033277517434       -5.06938950770426       -2.58704627391856
C           64.25841399589329       -2.10893174049975       -1.81430272626241
C           63.00805224162339       -2.48892881655027       -2.40120006293872
C           62.05635457129495       -1.70457691535919       -1.83829794455435
N           64.07357771571540       -1.06515330844226       -0.93966257750530
C           62.72862580032970       -0.84449085831999       -0.91645596506947
C           62.05985498269130        0.01987741398677       -0.03948582928159
C           62.73284361991445        0.87471054894927        0.84396697291812
C           62.06649989286435        1.70583158924100        1.79605295492936
C           63.02212905545321        2.47038087194489        2.37920749929326
C           64.26751052712820        2.11538528483179        1.76636491067807
N           64.07725954255815        1.09661913910791        0.86300453502523
C           65.46949104132575        2.77008209608985        2.00435459801535
C           65.47620634991549        3.94525511816367        2.90111215563016
C           64.67288247847402        5.05545991449762        2.63146099440091
C           64.67800504878456        6.16216696042891        3.46251683963263
C           65.48064736508628        6.17687382258072        4.60733482363753
N           65.55700058083821        7.27421444156564        5.44997417435811
C           64.45003933316241        8.21884155662682        5.51128187932864
C           66.29088085049801        5.06733678872245        4.88073375053331
C           66.29100013418318        3.97325058548278        4.03725561798921
C           66.66931603954258        2.36569149723639        1.42263842479822
C           67.91456805884079        3.06003941894392        1.57889456091473
C           68.86267655760383        2.30718173632309        0.97107498969545
C           68.19419765845343        1.16031542904514        0.43575748486676
N           66.84696669785386        1.23145286517408        0.67924451533948
H           69.92860769442994        0.11187670298559       -0.17550862391412
H           69.95471471881508       -2.29086378758249       -1.19029152735136
H           68.06426461850609       -3.90920989601187       -2.22918516065875
H           66.82470248305664       -3.14349903111750       -4.37584677614703
H           66.81408268499315       -5.14826672562350       -5.80408780105600
H           65.82971475984664       -7.15592339587212       -6.30263264961050
H           63.44726621558756       -7.84705295926127       -5.50864065729374
H           64.40322597800943       -8.86229583684093       -4.39824862122513
H           64.59628149605462       -9.05063653371247       -6.14929337150888
H           64.08931312904825       -7.05629988233864       -3.08128967769509
H           64.10461425389694       -5.05541233750184       -1.67428015383477
H           62.88383991977125       -3.25117606267871       -3.15313773854367
H           60.99344737471866       -1.70002831655584       -2.01921210785697
H           61.00513192072219        1.69340806286231        1.98551390769680
H           62.90302589565120        3.20568818414873        3.15827865727618
H           64.05387320718049        5.06103142734640        1.74085404505868
H           64.05759842766317        7.01414940066740        3.21294007333482
H           65.92181387860879        7.04344484311211        6.36606810330844
H           64.38440667608022        8.77918679244607        4.57768803895039
H           64.64806211113641        8.91746233743890        6.32412972004223
H           63.49647359308321        7.71057533945858        5.69441544699192
H           66.91981404687903        5.07142523974799        5.76477339499994
H           66.90985327916998        3.11409306218811        4.27184068194835
H           68.03558155632906        4.00504778439911        2.08324373219504
H           69.92133840987373        2.49466382549240        0.88503415515089
C           42.11940346173896       -0.05756768404178        0.09749840934331
C           40.88850307423590       -0.05883961113855        0.09053451821634
C           39.54836090433628       -0.05661545578188        0.07554698825273
C           38.32218431612247       -0.04591294648772        0.06415196236650
C           43.45946222041160       -0.05222540714379        0.09475539933673
C           44.68587110688080       -0.04211145593517        0.08592483647719
C           58.09407861086407        0.02536201914968       -0.03825441593747
C           56.86314504791165        0.02483347042114       -0.03724510141995
C           55.52296800755773        0.02536429245501       -0.03527732443058
C           54.29652365497668        0.02431059205716       -0.03424617673234
C           59.43441197106853        0.02405952890957       -0.03941961954714
C           60.66064362843410        0.02295268494048       -0.03905234843797
Fe          49.49075927716498        0.01601674371657       -0.00150335367570
C           46.08417231618522       -0.02962506215756        0.06840199563587
C           46.75729155936597       -1.10514376242363       -0.52785900284479
C           46.08438296970287       -2.21758721317067       -1.11939092854932
C           47.03393317210144       -2.95661370965414       -1.74381767734030
C           48.28558045095254       -2.29837723270777       -1.51827214095319
N           48.10060522698169       -1.17780294817210       -0.74540120153969
C           49.48124529735816       -2.66973365340381       -2.12430747964234
C           49.47540916391307       -3.82334651005850       -3.05215377659076
C           49.15034774533413       -5.10468306615709       -2.59879790095352
C           49.14885644567023       -6.18058023419442       -3.46581101835016
C           49.46411719832859       -6.00475251863536       -4.81917635174195
N           49.39101154051780       -7.10212715051494       -5.66216269379236
C           50.14089418468695       -7.10791251283200       -6.91083082343256
C           49.77512824050073       -4.72185020145955       -5.27994600526376
C           49.78880206633904       -3.65210875089029       -4.40155620149582
C           50.68270548011924       -2.00721450846228       -1.89575093745466
C           51.93375511815773       -2.39674056760274       -2.47357115065987
C           52.89125038351293       -1.64227165846574       -1.88016213119878
N           50.87575178886517       -1.00498525108516       -0.97620884681532
C           52.22250612659580       -0.80087781784423       -0.93953439007408
C           52.89797478975417        0.02749241264557       -0.03223946723849
C           52.23047982693775        0.86178018311694        0.87537039602476
C           52.90253123544787        1.68014562860845        1.83335722327650
C           51.95034281101884        2.44222713360040        2.42703583669314
C           50.70287492874410        2.09252865642710        1.81791089879925
N           50.88604403861307        1.08338047655144        0.90513843562230
C           49.49829672480044        2.74191328718408        2.07259378989334
C           49.50481722512234        3.92242604674939        2.96006971133340
C           48.69856361180521        3.96768643509992        4.10013585165843
C           48.70508839238580        5.06794506308274        4.93916284739920
C           49.52290075596541        6.16560093235149        4.65197260312758
N           49.52695504828977        7.31457604001221        5.42395562187319
C           49.10178283233236        7.25969156881437        6.81560977941586
C           50.32305045680888        6.13133666761427        3.50225696984931
C           50.31888152733507        5.02420305719443        2.67673208505236
C           48.28917440797780        2.32043931215611        1.52783503726190
C           47.04053081263607        2.99432515097672        1.71940739210541
C           46.08296769910471        2.20660665290237        1.16962889395554
C           46.75326518441960        1.06741504898666        0.62921174504012
N           48.10031680575094        1.16555050070616        0.80874948536863
H           45.02085617482770       -2.38806440866976       -1.07281763093330
H           46.90132539927311       -3.85541459305877       -2.32337662446141
H           48.92177913426359       -5.25874456865639       -1.55001892340620
H           48.90396467952550       -7.17202619525117       -3.09976703645392
H           49.45425440602870       -7.98364500845757       -5.16760292888555
H           49.71900431291859       -6.37893635930398       -7.60380837258282
H           51.19952329599422       -6.87755723324872       -6.74568926301467
H           50.05244313855739       -8.10051666604648       -7.35227807535913
H           50.00367526608867       -4.55122268175016       -6.32476172074117
H           50.02147418554377       -2.65997975438614       -4.77270571629371
H           52.05967445928286       -3.16510328039381       -3.21874348248925
H           53.95684972649155       -1.65564143194470       -2.04360516105472
H           53.96463449987056        1.66446156690325        2.01798618639540
H           52.07421600471948        3.16936530358235        3.21291578039188
H           48.07602190587748        3.11435370768039        4.34626403975407
H           48.07178558780878        5.06689803718969        5.81773561835829
H           50.35593317276981        7.88032542173355        5.29021270302062
H           49.63698128426928        6.48014845251146        7.36957813606981
H           49.30706192215366        8.22936397028559        7.26899505275320
H           48.02942332357885        7.06794475485754        6.87174628463960
H           50.94832373751899        6.98490558994029        3.26260202895947
H           50.93449698479669        5.01748452165117        1.78396477527511
H           46.91910022509268        3.94915439634093        2.20428087498112
H           45.01857091999852        2.37215180719703        1.12447037035869

          :  Hamiltonian                  GFN1-xTB          :
         :: total energy            -347.109927290711 Eh    ::
         :: gradient norm              0.000579321239 Eh/a0 ::
         :: HOMO-LUMO gap              0.045446384008 eV    ::
         :: SCC energy              -352.750410182159 Eh    ::
         :: repulsion energy           5.820354321695 Eh    ::

    * Orbital Energies and Occupations

         #    Occupation            Energy/Eh            Energy/eV
      -------------------------------------------------------------
         1        2.0000           -0.7825851             -21.2952
       ...           ...                  ...                  ...
       310        2.0000           -0.3868398             -10.5264
       311        2.0000           -0.3831026             -10.4248
       312        1.9961           -0.3775607             -10.2739
       313        1.9932           -0.3770259             -10.2594
       314        1.9927           -0.3769610             -10.2576
       315        1.9920           -0.3768739             -10.2553
       316        1.9739           -0.3757396             -10.2244
       317        1.9666           -0.3755023             -10.2179
       318        1.9624           -0.3753876             -10.2148
       319        1.9615           -0.3753651             -10.2142
       320        1.9588           -0.3753003             -10.2124
       321        1.9585           -0.3752910             -10.2122
       322        1.1629           -0.3719427             -10.1211 (HOMO)
       323        0.3864           -0.3702726             -10.0756 (LUMO)
       324        0.3480           -0.3701506             -10.0723
       325        0.3470           -0.3701474             -10.0722
       326                         -0.3359371              -9.1413
       327                         -0.3251295              -8.8472
       328                         -0.3198564              -8.7037
       329                         -0.3179956              -8.6531
       330                         -0.3170582              -8.6276
       331                         -0.3170530              -8.6275
       332                         -0.2985189              -8.1231
       333                         -0.2899305              -7.8894
       ...                                ...                  ...
       703                          1.5792855              42.9745
      -------------------------------------------------------------
                  HL-Gap            0.0016701 Eh            0.0454 eV

Wiberg/Mayer (AO) data.
largest (>0.10) Wiberg bond orders for each atom

     #   Z sym  total        # sym  WBO       # sym  WBO       # sym  WBO
 ---------------------------------------------------------------------------
     1  26 Fe   3.102 --     7 N    0.662    41 N    0.661    27 N    0.654
                            20 N    0.654
     2   6 C    3.916 --    40 C    1.363     3 C    1.362    42 H    0.970
     3   6 C    3.926 --     2 C    1.362     7 N    1.208     4 C    1.176
     4   6 C    3.957 --     5 C    1.645     3 C    1.176    43 H    0.975
     5   6 C    3.962 --     4 C    1.645     6 C    1.178    44 H    0.973
     6   6 C    3.919 --     8 C    1.306     7 N    1.228     5 C    1.178
     7   7 N    3.374 --     6 C    1.228     3 C    1.208     1 Fe   0.662
     8   6 C    3.919 --    17 C    1.328     6 C    1.306     9 C    1.041
     9   6 C    3.984 --    16 C    1.379    10 C    1.370     8 C    1.041
    10   6 C    3.986 --    11 C    1.479     9 C    1.370    45 H    0.972
    11   6 C    3.987 --    10 C    1.479    12 C    1.342    46 H    0.971
    12   6 C    3.949 --    15 C    1.350    11 C    1.342    13 N    1.113
    13   7 N    3.180 --    12 C    1.113    14 C    0.971    47 H    0.930
    14   6 C    3.967 --    50 H    0.990    49 H    0.986    48 H    0.984
                            13 N    0.971
    15   6 C    3.987 --    16 C    1.467    12 C    1.350    51 H    0.970
    16   6 C    3.985 --    15 C    1.467     9 C    1.379    52 H    0.972
    17   6 C    3.917 --     8 C    1.328    20 N    1.202    18 C    1.183
    18   6 C    3.958 --    19 C    1.633    17 C    1.183    53 H    0.973
    19   6 C    3.960 --    18 C    1.633    21 C    1.191    54 H    0.974
    20   7 N    3.373 --    21 C    1.246    17 C    1.202     1 Fe   0.654
    21   6 C    3.905 --    22 C    1.246    20 N    1.246    19 C    1.191
    22   6 C    3.915 --    21 C    1.246    23 C    1.246   136 C    1.210
    23   6 C    3.905 --    27 N    1.247    22 C    1.246    24 C    1.192
    24   6 C    3.958 --    25 C    1.633    23 C    1.192    55 H    0.974
    25   6 C    3.957 --    24 C    1.633    26 C    1.182    56 H    0.973
    26   6 C    3.917 --    28 C    1.329    27 N    1.200    25 C    1.182
    27   7 N    3.373 --    23 C    1.247    26 C    1.200     1 Fe   0.654
    28   6 C    3.919 --    26 C    1.329    37 C    1.304    29 C    1.041
    29   6 C    3.984 --    30 C    1.380    36 C    1.369    28 C    1.041
    30   6 C    3.986 --    31 C    1.467    29 C    1.380    57 H    0.972
    31   6 C    3.987 --    30 C    1.467    32 C    1.350    58 H    0.970
    32   6 C    3.949 --    31 C    1.350    35 C    1.341    33 N    1.113
    33   7 N    3.180 --    32 C    1.113    34 C    0.971    59 H    0.930
    34   6 C    3.967 --    61 H    0.990    60 H    0.986    62 H    0.984
                            33 N    0.971
    35   6 C    3.987 --    36 C    1.480    32 C    1.341    63 H    0.971
    36   6 C    3.984 --    35 C    1.480    29 C    1.369    64 H    0.972
    37   6 C    3.919 --    28 C    1.304    41 N    1.229    38 C    1.178
    38   6 C    3.962 --    39 C    1.645    37 C    1.178    65 H    0.973
    39   6 C    3.959 --    38 C    1.645    40 C    1.176    66 H    0.975
    40   6 C    3.927 --     2 C    1.363    41 N    1.206    39 C    1.176
    41   7 N    3.374 --    37 C    1.229    40 C    1.206     1 Fe   0.661
    42   1 H    1.001 --     2 C    0.970
    43   1 H    0.998 --     4 C    0.975
    44   1 H    1.005 --     5 C    0.973
    45   1 H    1.005 --    10 C    0.972
    46   1 H    0.999 --    11 C    0.971
    47   1 H    0.965 --    13 N    0.930
    48   1 H    1.003 --    14 C    0.984
    49   1 H    1.011 --    14 C    0.986
    50   1 H    1.007 --    14 C    0.990
    51   1 H    1.001 --    15 C    0.970
    52   1 H    1.005 --    16 C    0.972
    53   1 H    1.005 --    18 C    0.973
    54   1 H    1.002 --    19 C    0.974
    55   1 H    1.002 --    24 C    0.974
    56   1 H    1.005 --    25 C    0.973
    57   1 H    1.005 --    30 C    0.972
    58   1 H    1.001 --    31 C    0.970
    59   1 H    0.965 --    33 N    0.930
    60   1 H    1.011 --    34 C    0.986
    61   1 H    1.007 --    34 C    0.990
    62   1 H    1.003 --    34 C    0.984
    63   1 H    0.999 --    35 C    0.971
    64   1 H    1.005 --    36 C    0.972
    65   1 H    1.005 --    38 C    0.973
    66   1 H    0.998 --    39 C    0.975
    67  26 Fe   3.100 --    73 N    0.662   107 N    0.661    93 N    0.654
                            86 N    0.654
    68   6 C    3.916 --   106 C    1.363    69 C    1.362   108 H    0.970
    69   6 C    3.927 --    68 C    1.362    73 N    1.208    70 C    1.176
    70   6 C    3.957 --    71 C    1.645    69 C    1.176   109 H    0.975
    71   6 C    3.962 --    70 C    1.645    72 C    1.178   110 H    0.973
    72   6 C    3.919 --    74 C    1.306    73 N    1.227    71 C    1.178
    73   7 N    3.374 --    72 C    1.227    69 C    1.208    67 Fe   0.662
    74   6 C    3.920 --    83 C    1.328    72 C    1.306    75 C    1.040
    75   6 C    3.984 --    82 C    1.380    76 C    1.370    74 C    1.040
    76   6 C    3.986 --    77 C    1.479    75 C    1.370   111 H    0.972
    77   6 C    3.987 --    76 C    1.479    78 C    1.342   112 H    0.971
    78   6 C    3.949 --    81 C    1.351    77 C    1.342    79 N    1.113
    79   7 N    3.180 --    78 C    1.113    80 C    0.971   113 H    0.930
    80   6 C    3.967 --   116 H    0.990   115 H    0.986   114 H    0.984
                            79 N    0.971
    81   6 C    3.988 --    82 C    1.467    78 C    1.351   117 H    0.970
    82   6 C    3.985 --    81 C    1.467    75 C    1.380   118 H    0.972
    83   6 C    3.917 --    74 C    1.328    86 N    1.202    84 C    1.182
    84   6 C    3.958 --    85 C    1.634    83 C    1.182   119 H    0.973
    85   6 C    3.960 --    84 C    1.634    87 C    1.191   120 H    0.974
    86   7 N    3.373 --    87 C    1.245    83 C    1.202    67 Fe   0.654
    87   6 C    3.905 --    88 C    1.247    86 N    1.245    85 C    1.191
    88   6 C    3.916 --    87 C    1.247    89 C    1.246   144 C    1.210
    89   6 C    3.905 --    93 N    1.247    88 C    1.246    90 C    1.191
    90   6 C    3.958 --    91 C    1.634    89 C    1.191   121 H    0.974
    91   6 C    3.957 --    90 C    1.634    92 C    1.182   122 H    0.973
    92   6 C    3.917 --    94 C    1.330    93 N    1.200    91 C    1.182
    93   7 N    3.373 --    89 C    1.247    92 C    1.200    67 Fe   0.654
    94   6 C    3.920 --    92 C    1.330   103 C    1.304    95 C    1.041
    95   6 C    3.984 --    96 C    1.380   102 C    1.370    94 C    1.041
    96   6 C    3.986 --    97 C    1.467    95 C    1.380   123 H    0.972
    97   6 C    3.988 --    96 C    1.467    98 C    1.351   124 H    0.970
    98   6 C    3.949 --    97 C    1.351   101 C    1.342    99 N    1.113
    99   7 N    3.180 --    98 C    1.113   100 C    0.971   125 H    0.930
   100   6 C    3.967 --   127 H    0.990   126 H    0.986   128 H    0.984
                            99 N    0.971
   101   6 C    3.987 --   102 C    1.479    98 C    1.342   129 H    0.971
   102   6 C    3.985 --   101 C    1.479    95 C    1.370   130 H    0.972
   103   6 C    3.919 --    94 C    1.304   107 N    1.229   104 C    1.178
   104   6 C    3.962 --   105 C    1.645   103 C    1.178   131 H    0.973
   105   6 C    3.959 --   104 C    1.645   106 C    1.176   132 H    0.975
   106   6 C    3.927 --    68 C    1.363   107 N    1.206   105 C    1.176
   107   7 N    3.374 --   103 C    1.229   106 C    1.206    67 Fe   0.661
   108   1 H    1.001 --    68 C    0.970
   109   1 H    0.998 --    70 C    0.975
   110   1 H    1.005 --    71 C    0.973
   111   1 H    1.005 --    76 C    0.972
   112   1 H    0.999 --    77 C    0.971
   113   1 H    0.965 --    79 N    0.930
   114   1 H    1.003 --    80 C    0.984
   115   1 H    1.011 --    80 C    0.986
   116   1 H    1.007 --    80 C    0.990
   117   1 H    1.001 --    81 C    0.970
   118   1 H    1.005 --    82 C    0.972
   119   1 H    1.005 --    84 C    0.973
   120   1 H    1.002 --    85 C    0.974
   121   1 H    1.002 --    90 C    0.974
   122   1 H    1.005 --    91 C    0.973
   123   1 H    1.006 --    96 C    0.972
   124   1 H    1.001 --    97 C    0.970
   125   1 H    0.965 --    99 N    0.930
   126   1 H    1.011 --   100 C    0.986
   127   1 H    1.007 --   100 C    0.990
   128   1 H    1.003 --   100 C    0.984
   129   1 H    0.999 --   101 C    0.971
   130   1 H    1.005 --   102 C    0.972
   131   1 H    1.005 --   104 C    0.973
   132   1 H    0.998 --   105 C    0.975
   133   6 C    3.915 --   134 C    2.332   137 C    1.359   136 C    0.186
   134   6 C    3.913 --   133 C    2.332   135 C    1.358   138 C    0.186
   135   6 C    3.922 --   136 C    2.415   134 C    1.358
   136   6 C    3.876 --   135 C    2.415    22 C    1.210   133 C    0.186
   137   6 C    3.918 --   138 C    2.413   133 C    1.359
   138   6 C    3.878 --   137 C    2.413   146 C    1.214   134 C    0.186
   139   6 C    3.913 --   140 C    2.333   143 C    1.358   142 C    0.186
   140   6 C    3.915 --   139 C    2.333   141 C    1.359   144 C    0.186
   141   6 C    3.919 --   142 C    2.413   140 C    1.359
   142   6 C    3.878 --   141 C    2.413   166 C    1.214   139 C    0.186
   143   6 C    3.922 --   144 C    2.416   139 C    1.358
   144   6 C    3.877 --   143 C    2.416    88 C    1.210   140 C    0.186
   145  26 Fe   3.059 --   151 N    0.646   164 N    0.646   171 N    0.645
                           185 N    0.645
   146   6 C    3.902 --   147 C    1.244   184 C    1.242   138 C    1.214
   147   6 C    3.905 --   151 N    1.248   146 C    1.244   148 C    1.192
   148   6 C    3.959 --   149 C    1.632   147 C    1.192   186 H    0.974
   149   6 C    3.959 --   148 C    1.632   150 C    1.185   187 H    0.972
   150   6 C    3.913 --   152 C    1.319   151 N    1.206   149 C    1.185
   151   7 N    3.364 --   147 C    1.248   150 C    1.206   145 Fe   0.646
   152   6 C    3.912 --   161 C    1.320   150 C    1.319   153 C    1.032
   153   6 C    3.983 --   160 C    1.383   154 C    1.373   152 C    1.032
   154   6 C    3.987 --   155 C    1.477   153 C    1.373   188 H    0.973
   155   6 C    3.987 --   154 C    1.477   156 C    1.343   189 H    0.971
   156   6 C    3.951 --   159 C    1.351   155 C    1.343   157 N    1.113
   157   7 N    3.181 --   156 C    1.113   158 C    0.971   190 H    0.930
   158   6 C    3.967 --   193 H    0.990   191 H    0.986   192 H    0.984
                           157 N    0.971
   159   6 C    3.987 --   160 C    1.465   156 C    1.351   194 H    0.970
   160   6 C    3.987 --   159 C    1.465   153 C    1.383   195 H    0.973
   161   6 C    3.913 --   152 C    1.320   164 N    1.206   162 C    1.185
   162   6 C    3.959 --   163 C    1.632   161 C    1.185   196 H    0.973
   163   6 C    3.959 --   162 C    1.632   165 C    1.193   197 H    0.974
   164   7 N    3.364 --   165 C    1.249   161 C    1.206   145 Fe   0.646
   165   6 C    3.906 --   164 N    1.249   166 C    1.243   163 C    1.193
   166   6 C    3.903 --   165 C    1.243   167 C    1.243   142 C    1.214
   167   6 C    3.906 --   171 N    1.247   166 C    1.243   168 C    1.195
   168   6 C    3.957 --   169 C    1.628   167 C    1.195   198 H    0.974
   169   6 C    3.959 --   168 C    1.628   170 C    1.187   199 H    0.973
   170   6 C    3.913 --   172 C    1.313   171 N    1.208   169 C    1.187
   171   7 N    3.364 --   167 C    1.247   170 C    1.208   145 Fe   0.645
   172   6 C    3.913 --   181 C    1.316   170 C    1.313   173 C    1.045
   173   6 C    3.983 --   174 C    1.377   180 C    1.367   172 C    1.045
   174   6 C    3.984 --   175 C    1.469   173 C    1.377   200 H    0.972
   175   6 C    3.987 --   174 C    1.469   176 C    1.348   201 H    0.970
   176   6 C    3.948 --   175 C    1.348   179 C    1.339   177 N    1.117
   177   7 N    3.183 --   176 C    1.117   178 C    0.970   202 H    0.930
   178   6 C    3.966 --   204 H    0.990   205 H    0.986   203 H    0.983
                           177 N    0.970
   179   6 C    3.987 --   180 C    1.482   176 C    1.339   206 H    0.971
   180   6 C    3.984 --   179 C    1.482   173 C    1.367   207 H    0.972
   181   6 C    3.914 --   172 C    1.316   185 N    1.206   182 C    1.186
   182   6 C    3.959 --   183 C    1.629   181 C    1.186   208 H    0.973
   183   6 C    3.957 --   182 C    1.629   184 C    1.195   209 H    0.974
   184   6 C    3.906 --   185 N    1.248   146 C    1.242   183 C    1.195
   185   7 N    3.363 --   184 C    1.248   181 C    1.206   145 Fe   0.645
   186   1 H    1.002 --   148 C    0.974
   187   1 H    1.005 --   149 C    0.972
   188   1 H    1.004 --   154 C    0.973
   189   1 H    0.999 --   155 C    0.971
   190   1 H    0.965 --   157 N    0.930
   191   1 H    1.011 --   158 C    0.986
   192   1 H    1.003 --   158 C    0.984
   193   1 H    1.007 --   158 C    0.990
   194   1 H    1.001 --   159 C    0.970
   195   1 H    1.004 --   160 C    0.973
   196   1 H    1.006 --   162 C    0.973
   197   1 H    1.002 --   163 C    0.974
   198   1 H    1.002 --   168 C    0.974
   199   1 H    1.005 --   169 C    0.973
   200   1 H    1.006 --   174 C    0.972
   201   1 H    1.001 --   175 C    0.970
   202   1 H    0.964 --   177 N    0.930
   203   1 H    1.003 --   178 C    0.983
   204   1 H    1.007 --   178 C    0.990
   205   1 H    1.011 --   178 C    0.986
   206   1 H    0.998 --   179 C    0.971
   207   1 H    1.005 --   180 C    0.972
   208   1 H    1.005 --   182 C    0.973
   209   1 H    1.002 --   183 C    0.974
 ---------------------------------------------------------------------------

           -------------------------------------------------
          | TOTAL ENERGY             -347.109927290711 Eh   |
          | GRADIENT NORM               0.000579321239 Eh/α |
          | HOMO-LUMO GAP               0.045446384008 eV   |
           -------------------------------------------------

 * finished run on 2022/07/29 at 17:10:42.273
