   * xtb version 6.5.1 (b24c23e) compiled by 'conda@728c89f4b128' on 2022-07-12
          program call               : xtb Ni_p-CP_C2_2.xyz --gfn 1 --opt -T 48

   ID    Z sym.   atoms
    1   28 Ni     1, 63
    2    6 C      2-6, 8-11, 13-24, 27-32, 35-39, 42, 43, 64-68, 70-73,
                  75-86, 89-94, 97-101, 104, 105, 125, 126
    3    7 N      7, 12, 33, 34, 69, 74, 95, 96
    4    8 O      25, 26, 40, 41, 87, 88, 102, 103
    5    1 H      44-62, 106-124
########################################################################
[WARNING] Please study the warnings concerning your input carefully
-1- prog_main_parseArguments: Unknown option '-T' provided
########################################################################

          :  Hamiltonian                  GFN1-xTB          :
 * total energy  :  -239.2845445 Eh     change       -0.6037340E-09 Eh
 * total energy  :  -239.6845914 Eh     change       -0.4000469E+00 Eh
 * total energy  :  -239.7993470 Eh     change       -0.1147555E+00 Eh
 * total energy  :  -239.8514777 Eh     change       -0.5213075E-01 Eh
 * total energy  :  -239.8759256 Eh     change       -0.2444790E-01 Eh
 * total energy  :  -239.8881486 Eh     change       -0.1222296E-01 Eh
 * total energy  :  -239.8957227 Eh     change       -0.7574147E-02 Eh
 * total energy  :  -239.9010006 Eh     change       -0.5277845E-02 Eh
 * total energy  :  -239.9047771 Eh     change       -0.3776536E-02 Eh
 * total energy  :  -239.9075236 Eh     change       -0.2746498E-02 Eh
 * total energy  :  -239.9131689 Eh     change       -0.2555813E-04 Eh
 * total energy  :  -239.9131825 Eh     change       -0.1359856E-04 Eh
 * total energy  :  -239.9131957 Eh     change       -0.1319668E-04 Eh
 * total energy  :  -239.9132049 Eh     change       -0.9202314E-05 Eh
 * total energy  :  -239.9132156 Eh     change       -0.1068845E-04 Eh
 * total energy  :  -239.9132281 Eh     change       -0.1249507E-04 Eh
 * total energy  :  -239.9132389 Eh     change       -0.1083719E-04 Eh
 * total energy  :  -239.9132447 Eh     change       -0.5822073E-05 Eh
 * total energy  :  -239.9132489 Eh     change       -0.4177550E-05 Eh
   *** GEOMETRY OPTIMIZATION CONVERGED AFTER 40 ITERATIONS ***

 final structure:
================
126
 xtb: 6.5.1 (b24c23e)
Ni          19.01851362378951       -0.08919035918937        0.04066209204325
C           15.63019538157245       -0.19342226733033        0.06824023465547
C           16.29388563019982       -0.37415256502668        1.26392831823557
C           15.62922994026919       -0.59187147215803        2.51283862902452
C           16.58642248421123       -0.58015381208830        3.46941561482561
C           17.83785805006476       -0.36661022083071        2.80257912106238
N           17.64974895859484       -0.26450599708702        1.44687590659353
C           19.04517017076553       -0.17410266242761        3.46083846530176
C           20.24287829934440        0.03435601118842        2.78953239488591
C           21.50336014711073        0.20539415214662        3.44622587002035
C           22.44932793733511        0.22486562363866        2.47713013669538
N           20.41610603333086       -0.02589552670527        1.42536010001365
C           21.76837356440941        0.05777864354260        1.23302244462447
C           22.42864131615192       -0.08421747709880        0.01001770616399
C           21.74581738438882       -0.20447199829100       -1.20253617583907
C           22.39972177902963       -0.37392339250484       -2.46060684939437
C           21.43799887402389       -0.30856266838057       -3.41255616011776
C           20.19650360075472       -0.10040226927941       -2.73122385762065
C           18.98245598242787        0.09734427233189       -3.37803230702477
C           18.97826916049533        0.19449537207985       -4.85562006345372
C           18.25774667089440       -0.72139703528295       -5.62680195658605
C           18.26467749717138       -0.62971189354771       -7.00645476496062
C           18.98920222084956        0.38096263801901       -7.64117047520377
C           18.96696030672678        0.43673933832093       -9.12256929825897
O           19.70859034554669        1.43119352843989       -9.63356646231930
O           18.35119265405588       -0.32609697964007       -9.82272926559500
C           19.70832046092007        1.29953082530709       -6.87579087989654
C           19.70305652294837        1.20361738753726       -5.49536427992297
C           17.77737753023073        0.19255351871055       -2.69376029135305
C           16.50821123069426        0.40799686698184       -3.32568274045262
C           15.56659023813375        0.30376117209170       -2.35896362721410
C           16.26163211178939        0.04742954700637       -1.13443650510542
N           17.61798312353739        0.01936311146096       -1.34155970468151
N           20.39231463208651       -0.08515706153104       -1.36969107685074
C           19.06338094386609       -0.20731878454329        4.94339611234115
C           18.78339951667687       -1.39447444747317        5.62421982667588
C           18.81693362313516       -1.42958088810365        7.00622808697877
C           19.12765713209705       -0.27790630978383        7.73165309557277
C           19.15841921237759       -0.36756174464467        9.21130061736865
O           19.49961540970509        0.78245541120155        9.81195320368166
O           18.90794193596390       -1.36552649933380        9.83746576272624
C           19.40111019626777        0.91160306919147        7.05565521036177
C           19.37009551300258        0.94385537984843        5.67219246955416
H           14.54700461484200       -0.22604767203029        0.07713737976960
H           14.56408550809340       -0.71790994733113        2.62407338563398
H           16.46792605503065       -0.68975583438281        4.53512118091531
H           21.63951786552661        0.28313689810839        4.51239326110867
H           23.51607377923710        0.33532476731500        2.58257223740861
H           23.45925613314824       -0.52547431852517       -2.58602610739440
H           21.54864095824278       -0.40301289291163       -4.48038535661703
H           17.70748902267934       -1.51669019913854       -5.13702303750384
H           17.71253534746183       -1.34055120168613       -7.61139535905543
H           19.64253651803392        1.39758884943298      -10.60173940832429
H           20.26948073830845        2.08745074931898       -7.36410546090867
H           20.25304215372726        1.92378493397212       -4.90006326974432
H           16.36873873906776        0.61188874188033       -4.37483338853924
H           14.49554007981174        0.39309377959616       -2.44641730704319
H           18.55605607003857       -2.29264800155810        5.06137479834775
H           18.60761792061728       -2.34880111581709        7.54234283386820
H           19.49813435879596        0.63987848987637       10.77238184879082
H           19.63797381553069        1.80880724821927        7.61533779306478
H           19.57394446389976        1.86988848510548        5.14634640774769
Ni          29.87392750009204       -0.08398658647412       -0.05068553690539
C           33.26224465490647       -0.18431196071031       -0.09009948515095
C           32.59855027793233       -0.22590963904339       -1.29865111760830
C           33.26320279163787       -0.29813304394626       -2.56434017345666
C           32.30600815335386       -0.17616169315814       -3.51317894320073
C           31.05457354231166       -0.04095454071175       -2.82616077275669
N           31.24268647291211       -0.09590000452904       -1.46772701086972
C           29.84725845909944        0.22615063934568       -3.45782952899145
C           28.64954219622951        0.35577712211205       -2.76697074743061
C           27.38905341830742        0.60134964479305       -3.39956767496716
C           26.44308962120595        0.50894427357740       -2.43468763470405
N           28.47632050340130        0.13864100150756       -1.41884501378116
C           27.12405390916626        0.19956050724767       -1.21813747623069
C           26.46379305727677       -0.08248558280559       -0.01965609820607
C           27.14661396633215       -0.34172468926392        1.17095313262776
C           26.49270248183308       -0.65507376848510        2.40109946545926
C           27.45442314713748       -0.69991837327738        3.35423734600007
C           28.69592449034477       -0.41462166696119        2.70144712829855
C           29.90998449899216       -0.29281288556735        3.36672797717816
C           29.91417665924160       -0.36668999211976        4.84566215031474
C           30.63467642370650       -1.36541298449879        5.50609074122764
C           30.62774765151400       -1.43342170694095        6.88711323347669
C           29.90324539482358       -0.50265860850801        7.63413460712622
C           29.92551919518275       -0.61804241039760        9.11208596520885
O           29.18386686687297        0.31084057241354        9.73433862688174
O           30.54128692919939       -1.45652380477050        9.71961677187869
C           29.18413964178200        0.49804580925045        6.97977760305346
C           29.18940521109232        0.56194589924814        5.59749964331656
C           31.11506520754365       -0.11938532483365        2.69798997306920
C           32.38424145226508        0.02168013654982        3.35054090451167
C           33.32586181547510        0.02958769242883        2.37825123916591
C           32.63081277175419       -0.08376994853215        1.13233194380677
N           31.27446132210872       -0.13549090565579        1.33483895459898
N           28.50011782854861       -0.24251097713780        1.35074952035227
C           29.82904608445448        0.36411544329283       -4.93432926632346
C           30.10903263782049       -0.73661024188762       -5.74751076465573
C           30.07551379828125       -0.61211038993811       -7.12434923441226
C           29.76474418689958        0.61553013515596       -7.71212114212306
C           29.73389156629402        0.69708703886464       -9.19223033363982
O           29.39279378169442        1.90872619344769       -9.65625229693955
O           29.98458073214136       -0.22199370260647       -9.92934329137256
C           29.49128998865510        1.71915065443558       -6.90346144734335
C           29.52232558649493        1.59165336826439       -5.52551088748096
H           34.34543456450593       -0.21571995832802       -0.10270086892955
H           34.32834634983191       -0.41050626681701       -2.68937167726538
H           32.42449985728028       -0.16212052902385       -4.58441443707160
H           27.25289500663236        0.80148279370762       -4.44966470348119
H           25.37634033784779        0.63079557895083       -2.52669213167361
H           25.43316428382221       -0.82005083845232        2.50820655582829
H           27.34377585513980       -0.91684683262146        4.40405676071516
H           31.18491831944009       -2.09893797215020        4.92787563011616
H           31.17988327869122       -2.20927813358039        7.40605348836478
H           29.24993105083190        0.16583193113612       10.69217876591558
H           28.62299129103229        1.22441309008048        7.55568874449199
H           28.63943244598830        1.34596181063556        5.08921048226723
H           32.52371977743120        0.10320605289159        4.41620536254980
H           34.39691579846315        0.10818540800675        2.47542340487772
H           30.33636551177273       -1.69369917833305       -5.29199506640079
H           30.28480174457199       -1.46337962622137       -7.76288648314138
H           29.39439692201747        1.87788364732918      -10.62673827079286
H           29.25443901584242        2.67491297440202       -7.35594814642377
H           29.31848205263743        2.45087027389383       -4.89638376719898
C           23.83824654739260       -0.09235698594515       -0.00085070130398
C           25.05418762352932       -0.09185023494501       -0.00980309959858

          :  Hamiltonian                  GFN1-xTB          :
         :: total energy            -239.913248907306 Eh    ::
         :: gradient norm              0.000769835055 Eh/a0 ::
         :: HOMO-LUMO gap              1.232260397760 eV    ::
         :: SCC energy              -243.267536601248 Eh    ::
         :: repulsion energy           3.468747770066 Eh    ::

    * Orbital Energies and Occupations

         #    Occupation            Energy/Eh            Energy/eV
      -------------------------------------------------------------
         1        2.0000           -0.8339461             -22.6928
       ...           ...                  ...                  ...
       201        2.0000           -0.4384365             -11.9305
       202        2.0000           -0.4085582             -11.1174
       203        2.0000           -0.4080718             -11.1042
       204        2.0000           -0.4079462             -11.1008
       205        2.0000           -0.4076838             -11.0936
       206        2.0000           -0.4075859             -11.0910
       207        2.0000           -0.4068198             -11.0701
       208        2.0000           -0.4068152             -11.0700
       209        2.0000           -0.4057222             -11.0403
       210        2.0000           -0.4057217             -11.0403
       211        2.0000           -0.4056425             -11.0381
       212        2.0000           -0.4056415             -11.0381
       213        2.0000           -0.3946025             -10.7377 (HOMO)
       214                         -0.3493177              -9.5054 (LUMO)
       215                         -0.3409798              -9.2785
       216                         -0.3409689              -9.2782
       217                         -0.3371887              -9.1754
       218                         -0.3371741              -9.1750
       219                         -0.3330409              -9.0625
       220                         -0.3163459              -8.6082
       221                         -0.3144733              -8.5573
       222                         -0.3103426              -8.4449
       223                         -0.3103388              -8.4447
       224                         -0.3015273              -8.2050
       ...                                ...                  ...
       438                          1.3339191              36.2978
      -------------------------------------------------------------
                  HL-Gap            0.0452847 Eh            1.2323 eV

Wiberg/Mayer (AO) data.
largest (>0.10) Wiberg bond orders for each atom

     #   Z sym  total        # sym  WBO       # sym  WBO       # sym  WBO
 ---------------------------------------------------------------------------
     1  28 Ni   3.019 --     7 N    0.665    33 N    0.664    12 N    0.662
                            34 N    0.662
     2   6 C    3.935 --     3 C    1.365    32 C    1.363    44 H    0.970
     3   6 C    3.922 --     2 C    1.365     7 N    1.213     4 C    1.173
     4   6 C    3.960 --     5 C    1.652     3 C    1.173    45 H    0.975
     5   6 C    3.963 --     4 C    1.652     6 C    1.175    46 H    0.973
     6   6 C    3.920 --     8 C    1.325     7 N    1.220     5 C    1.175
     7   7 N    3.402 --     6 C    1.220     3 C    1.213     1 Ni   0.665
     8   6 C    3.938 --     9 C    1.327     6 C    1.325    35 C    1.023
     9   6 C    3.915 --     8 C    1.327    12 N    1.207    10 C    1.183
    10   6 C    3.959 --    11 C    1.636     9 C    1.183    47 H    0.972
    11   6 C    3.962 --    10 C    1.636    13 C    1.191    48 H    0.969
    12   7 N    3.406 --    13 C    1.236     9 C    1.207     1 Ni   0.662
    13   6 C    3.909 --    14 C    1.269    12 N    1.236    11 C    1.191
    14   6 C    3.945 --    15 C    1.270    13 C    1.269   125 C    1.169
    15   6 C    3.909 --    14 C    1.270    34 N    1.234    16 C    1.191
    16   6 C    3.962 --    17 C    1.635    15 C    1.191    49 H    0.969
    17   6 C    3.959 --    16 C    1.635    18 C    1.184    50 H    0.973
    18   6 C    3.915 --    19 C    1.322    34 N    1.210    17 C    1.184
    19   6 C    3.939 --    29 C    1.323    18 C    1.322    20 C    1.032
    20   6 C    3.987 --    28 C    1.385    21 C    1.385    19 C    1.032
    21   6 C    3.987 --    22 C    1.464    20 C    1.385    51 H    0.972
                            27 C    0.102
    22   6 C    3.990 --    21 C    1.464    23 C    1.385    52 H    0.968
                            28 C    0.103
    23   6 C    3.982 --    27 C    1.388    22 C    1.385    24 C    1.009
    24   6 C    3.836 --    26 O    1.690    25 O    1.088    23 C    1.009
    25   8 O    2.096 --    24 C    1.088    53 H    0.838    26 O    0.129
    26   8 O    1.958 --    24 C    1.690    25 O    0.129
    27   6 C    3.991 --    28 C    1.462    23 C    1.388    54 H    0.970
                            21 C    0.102
    28   6 C    3.987 --    27 C    1.462    20 C    1.385    55 H    0.972
                            22 C    0.103
    29   6 C    3.920 --    19 C    1.323    33 N    1.221    30 C    1.176
    30   6 C    3.963 --    31 C    1.650    29 C    1.176    56 H    0.972
    31   6 C    3.960 --    30 C    1.650    32 C    1.174    57 H    0.975
    32   6 C    3.922 --     2 C    1.363    33 N    1.213    31 C    1.174
    33   7 N    3.402 --    29 C    1.221    32 C    1.213     1 Ni   0.664
    34   7 N    3.406 --    15 C    1.234    18 C    1.210     1 Ni   0.662
    35   6 C    3.986 --    43 C    1.389    36 C    1.388     8 C    1.023
    36   6 C    3.988 --    37 C    1.463    35 C    1.388    58 H    0.972
                            42 C    0.103
    37   6 C    3.990 --    36 C    1.463    38 C    1.386    59 H    0.968
                            43 C    0.103
    38   6 C    3.984 --    42 C    1.389    37 C    1.386    39 C    1.009
    39   6 C    3.836 --    41 O    1.690    40 O    1.088    38 C    1.009
    40   8 O    2.096 --    39 C    1.088    60 H    0.838    41 O    0.129
    41   8 O    1.959 --    39 C    1.690    40 O    0.129
    42   6 C    3.991 --    43 C    1.460    38 C    1.389    61 H    0.970
                            36 C    0.103
    43   6 C    3.988 --    42 C    1.460    35 C    1.389    62 H    0.972
                            37 C    0.103
    44   1 H    1.000 --     2 C    0.970
    45   1 H    0.997 --     4 C    0.975
    46   1 H    1.004 --     5 C    0.973
    47   1 H    1.004 --    10 C    0.972
    48   1 H    1.005 --    11 C    0.969
    49   1 H    1.005 --    16 C    0.969
    50   1 H    1.004 --    17 C    0.973
    51   1 H    1.004 --    21 C    0.972
    52   1 H    1.005 --    22 C    0.968
    53   1 H    0.873 --    25 O    0.838
    54   1 H    1.005 --    27 C    0.970
    55   1 H    1.004 --    28 C    0.972
    56   1 H    1.004 --    30 C    0.972
    57   1 H    0.997 --    31 C    0.975
    58   1 H    1.003 --    36 C    0.972
    59   1 H    1.005 --    37 C    0.968
    60   1 H    0.873 --    40 O    0.838
    61   1 H    1.005 --    42 C    0.970
    62   1 H    1.003 --    43 C    0.972
    63  28 Ni   3.019 --    69 N    0.665    95 N    0.664    74 N    0.662
                            96 N    0.662
    64   6 C    3.935 --    65 C    1.365    94 C    1.363   106 H    0.970
    65   6 C    3.922 --    64 C    1.365    69 N    1.213    66 C    1.173
    66   6 C    3.960 --    67 C    1.652    65 C    1.173   107 H    0.975
    67   6 C    3.963 --    66 C    1.652    68 C    1.175   108 H    0.973
    68   6 C    3.920 --    70 C    1.325    69 N    1.220    67 C    1.175
    69   7 N    3.402 --    68 C    1.220    65 C    1.213    63 Ni   0.665
    70   6 C    3.938 --    71 C    1.327    68 C    1.325    97 C    1.023
    71   6 C    3.915 --    70 C    1.327    74 N    1.207    72 C    1.183
    72   6 C    3.959 --    73 C    1.636    71 C    1.183   109 H    0.972
    73   6 C    3.962 --    72 C    1.636    75 C    1.191   110 H    0.969
    74   7 N    3.406 --    75 C    1.236    71 C    1.207    63 Ni   0.662
    75   6 C    3.909 --    76 C    1.269    74 N    1.236    73 C    1.191
    76   6 C    3.945 --    77 C    1.270    75 C    1.269   126 C    1.169
    77   6 C    3.909 --    76 C    1.270    96 N    1.234    78 C    1.191
    78   6 C    3.962 --    79 C    1.635    77 C    1.191   111 H    0.969
    79   6 C    3.959 --    78 C    1.635    80 C    1.184   112 H    0.973
    80   6 C    3.915 --    81 C    1.322    96 N    1.210    79 C    1.184
    81   6 C    3.939 --    91 C    1.323    80 C    1.322    82 C    1.032
    82   6 C    3.987 --    90 C    1.385    83 C    1.385    81 C    1.032
    83   6 C    3.987 --    84 C    1.464    82 C    1.385   113 H    0.972
                            89 C    0.102
    84   6 C    3.990 --    83 C    1.464    85 C    1.385   114 H    0.968
                            90 C    0.103
    85   6 C    3.982 --    89 C    1.388    84 C    1.385    86 C    1.009
    86   6 C    3.836 --    88 O    1.690    87 O    1.088    85 C    1.009
    87   8 O    2.096 --    86 C    1.088   115 H    0.838    88 O    0.129
    88   8 O    1.958 --    86 C    1.690    87 O    0.129
    89   6 C    3.991 --    90 C    1.462    85 C    1.388   116 H    0.970
                            83 C    0.102
    90   6 C    3.987 --    89 C    1.462    82 C    1.385   117 H    0.972
                            84 C    0.103
    91   6 C    3.920 --    81 C    1.323    95 N    1.221    92 C    1.176
    92   6 C    3.963 --    93 C    1.650    91 C    1.176   118 H    0.972
    93   6 C    3.960 --    92 C    1.650    94 C    1.174   119 H    0.975
    94   6 C    3.922 --    64 C    1.363    95 N    1.213    93 C    1.174
    95   7 N    3.402 --    91 C    1.221    94 C    1.213    63 Ni   0.664
    96   7 N    3.406 --    77 C    1.234    80 C    1.210    63 Ni   0.662
    97   6 C    3.986 --   105 C    1.389    98 C    1.388    70 C    1.023
    98   6 C    3.988 --    99 C    1.463    97 C    1.388   120 H    0.972
                           104 C    0.103
    99   6 C    3.990 --    98 C    1.463   100 C    1.386   121 H    0.968
                           105 C    0.103
   100   6 C    3.984 --   104 C    1.389    99 C    1.386   101 C    1.009
   101   6 C    3.836 --   103 O    1.690   102 O    1.088   100 C    1.009
   102   8 O    2.096 --   101 C    1.088   122 H    0.838   103 O    0.129
   103   8 O    1.959 --   101 C    1.690   102 O    0.129
   104   6 C    3.991 --   105 C    1.460   100 C    1.389   123 H    0.970
                            98 C    0.103
   105   6 C    3.988 --   104 C    1.460    97 C    1.389   124 H    0.972
                            99 C    0.103
   106   1 H    1.000 --    64 C    0.970
   107   1 H    0.997 --    66 C    0.975
   108   1 H    1.004 --    67 C    0.973
   109   1 H    1.004 --    72 C    0.972
   110   1 H    1.005 --    73 C    0.969
   111   1 H    1.005 --    78 C    0.969
   112   1 H    1.004 --    79 C    0.973
   113   1 H    1.004 --    83 C    0.972
   114   1 H    1.005 --    84 C    0.968
   115   1 H    0.873 --    87 O    0.838
   116   1 H    1.005 --    89 C    0.970
   117   1 H    1.004 --    90 C    0.972
   118   1 H    1.004 --    92 C    0.972
   119   1 H    0.997 --    93 C    0.975
   120   1 H    1.003 --    98 C    0.972
   121   1 H    1.005 --    99 C    0.968
   122   1 H    0.873 --   102 O    0.838
   123   1 H    1.005 --   104 C    0.970
   124   1 H    1.003 --   105 C    0.972
   125   6 C    3.937 --   126 C    2.589    14 C    1.169
   126   6 C    3.937 --   125 C    2.589    76 C    1.169
 ---------------------------------------------------------------------------

           -------------------------------------------------
          | TOTAL ENERGY             -239.913248907306 Eh   |
          | GRADIENT NORM               0.000769835055 Eh/α |
          | HOMO-LUMO GAP               1.232260397760 eV   |
           -------------------------------------------------

 * finished run on 2022/07/30 at 06:07:40.627
