   * xtb version 6.5.1 (b24c23e) compiled by 'conda@728c89f4b128' on 2022-07-12
          program call               : xtb Ni_PhNH2_C4_2.xyz --gfn 1 --opt -T 48

   ID    Z sym.   atoms
    1   28 Ni     1, 61
    2    6 C      2-6, 8-12, 14-18, 20-25, 27-31, 33-38, 62-66, 68-72, 74-78,
                  80-85, 87-91, 93-98, 121-124
    3    7 N      7, 13, 19, 26, 32, 39, 67, 73, 79, 86, 92, 99
    4    1 H      40-60, 100-120
########################################################################
[WARNING] Please study the warnings concerning your input carefully
-1- prog_main_parseArguments: Unknown option '-T' provided
########################################################################

          :  Hamiltonian                  GFN1-xTB          :
 * total energy  :  -211.8736773 Eh     change       -0.1124249E-08 Eh
 * total energy  :  -212.7545598 Eh     change       -0.8808825E+00 Eh
 * total energy  :  -212.8645887 Eh     change       -0.1100289E+00 Eh
 * total energy  :  -212.9236083 Eh     change       -0.5901963E-01 Eh
 * total energy  :  -212.9422181 Eh     change       -0.1860977E-01 Eh
 * total energy  :  -212.9528916 Eh     change       -0.1067349E-01 Eh
 * total energy  :  -212.9591959 Eh     change       -0.6304357E-02 Eh
 * total energy  :  -212.9629911 Eh     change       -0.3795151E-02 Eh
 * total energy  :  -212.9657918 Eh     change       -0.2800722E-02 Eh
 * total energy  :  -212.9677322 Eh     change       -0.1940393E-02 Eh
 * total energy  :  -212.9780691 Eh     change       -0.3813972E-04 Eh
 * total energy  :  -212.9780889 Eh     change       -0.1979744E-04 Eh
 * total energy  :  -212.9781166 Eh     change       -0.2763532E-04 Eh
 * total energy  :  -212.9781314 Eh     change       -0.1479876E-04 Eh
 * total energy  :  -212.9781493 Eh     change       -0.1793100E-04 Eh
 * total energy  :  -212.9781563 Eh     change       -0.6981716E-05 Eh
 * total energy  :  -212.9781628 Eh     change       -0.6509090E-05 Eh
 * total energy  :  -212.9781681 Eh     change       -0.5348901E-05 Eh
 * total energy  :  -212.9781731 Eh     change       -0.4940309E-05 Eh
   *** GEOMETRY OPTIMIZATION CONVERGED AFTER 42 ITERATIONS ***

 final structure:
================
124
 xtb: 6.5.1 (b24c23e)
Ni          15.39247518951185        0.05314897578861       -0.03199704003447
C           12.00355105666919        0.13682724503140        0.05989920260740
C           12.66058027491540        1.15869994151680       -0.59398510818587
C           11.99199043755326        2.22969852330359       -1.26628781569876
C           12.95381850536363        3.08839502505154       -1.68042808336533
C           14.20879236103623        2.54662197312988       -1.24951704034875
N           14.02111374255666        1.34064128932148       -0.62181296685727
C           15.42806805525494        3.19682747494997       -1.40151585278633
C           15.44079553731269        4.56127397919856       -1.97698169634547
C           16.15149116325728        4.83745698438680       -3.14748148806946
C           16.16269410742299        6.11183098459269       -3.68632186907099
C           15.46201184178171        7.14487513165971       -3.05837915349494
N           15.51254407882151        8.43224998608503       -3.56496502168903
C           14.75824524787166        6.87919062625247       -1.88088985571799
C           14.74361860521059        5.59985110703087       -1.35463998694585
C           16.63309226113505        2.61630146076419       -1.02627556143787
C           17.89907473422278        3.27788488016876       -1.11663814477720
C           18.84201131871908        2.37022077876503       -0.76534016495928
N           16.79755279378042        1.32570000808655       -0.57497368679029
C           18.14987098814797        1.16225720202969       -0.44859851559236
C           18.80018557225078       -0.03128037449559       -0.12370185533599
C           18.10926781326629       -1.19272372784523        0.23206079233781
C           18.75645139446514       -2.43373668047304        0.51413287997675
C           17.79031977166003       -3.29187488229026        0.92251357753119
C           16.55618110122393       -2.56724382354266        0.90102551158482
N           16.75928321331056       -1.28810031167016        0.43309930600546
C           15.34764888338899       -3.08442752725715        1.35084615863787
C           15.32725848979477       -4.44107657601320        1.94419091779707
C           16.08893307789802       -4.73580918838205        3.07762070079144
C           16.06772408737146       -6.00102335225846        3.63696823274122
C           15.29154446871340       -7.00988647332563        3.06059764152136
N           15.23806097733593       -8.26593848956460        3.63931367195402
C           14.52366254630496       -6.72206372959823        1.92923277958548
C           14.54261419104123       -5.45135694906166        1.38242475597167
C           14.15522582916858       -2.37536736910526        1.26187819283424
C           12.90058504841585       -2.85209911328209        1.76501188875439
C           11.96076245574288       -1.94965849678079        1.39607773884305
C           12.64330035661832       -0.91592313636048        0.68083223289445
N           13.99289025284763       -1.16481099453031        0.63612093759041
H           10.92042332499818        0.16409320999791        0.08927861703988
H           10.92345254127923        2.29857595824793       -1.39545741658865
H           12.83659470516094        4.00626458298672       -2.23343286174903
H           16.68364047398999        4.03712859336864       -3.64994736471705
H           16.71244399744102        6.31256058283030       -4.59944230122726
H           15.73706928557600        8.49486912187221       -4.54523646413355
H           14.75223088807982        9.03000170700678       -3.28280418034380
H           14.22360047165963        7.68019032214054       -1.38214191406722
H           14.20264582156781        5.40306396045413       -0.43551017406870
H           18.03909514912122        4.30672982771443       -1.40546281238921
H           19.91201804216998        2.49388429998965       -0.71921005845531
H           19.81454751954904       -2.61077701853683        0.40679054044501
H           17.89371962209677       -4.32589823707992        1.20857110673936
H           16.68743119935152       -3.95597705266262        3.53571653797347
H           16.65389585894631       -6.21488470526366        4.52402788362018
H           16.02863112159636       -8.50281086515805        4.21727160970487
H           14.94824410121344       -9.00760405422385        3.02215109680683
H           13.91608247218075       -7.49989646716632        1.47963332250654
H           13.95756165713918       -5.24033797456156        0.49389751615350
H           12.76846115865642       -3.75964493296762        2.33141994509519
H           10.89885789452177       -1.96504840366701        1.58395134642658
Ni          28.81295957727182       -0.05622840526867        0.02583469267133
C           32.20204201919772       -0.02804385059550        0.14065274527751
C           31.54508973691133       -1.13682396113685        0.63315099473750
C           32.21387499064786       -2.28876901897743        1.15445033508045
C           31.25239373555786       -3.10726357064194        1.64397276152269
C           29.99742142604668       -2.44840024947556        1.43166103283293
N           30.18474080513408       -1.25959658599548        0.77186655844599
C           28.77834572104521       -2.93394153298114        1.89063802570894
C           28.76608398002745       -4.16693604396766        2.71077101363390
C           28.05454847832726       -5.29531811737491        2.29619653071467
C           28.04381320420940       -6.44780676011550        3.06180029485870
C           28.74600824069533       -6.49442821305760        4.26892459935167
N           28.69562022332920       -7.62720914816265        5.06296914735734
C           29.45063423179897       -5.36600741913997        4.69621582864990
C           29.46459471784441       -4.22125277148883        3.91959265892476
C           27.57319838120301       -2.30052016581898        1.61421960974105
C           26.30746595469586       -2.74116150262603        2.11645350732075
C           25.36428669837619       -1.94660482858676        1.55475305367997
N           27.40841163030069       -1.21117635044166        0.78796042832226
C           26.05600208150219       -1.01531251720968        0.72249757232320
C           25.40517017023189       -0.08517330921491       -0.09250257439739
C           26.09546773559618        0.85359998167975       -0.86393523205972
C           25.44770395636299        1.77494175376381       -1.74149023667912
C           26.41356035754270        2.58946113394762       -2.23165844924242
C           27.64812639706105        2.17063389180718       -1.64077370088597
N           27.44549345100825        1.07368720004978       -0.83341278483711
C           28.85672855100187        2.83097620583882       -1.82426856977169
C           28.87660221828539        4.07565018645950       -2.62635100513256
C           28.11528039399530        5.18288536455534       -2.24404426647984
C           28.13596442927074        6.34891888730501       -2.98834706191549
C           28.91129387634140        6.42708064419323       -4.14818413592853
N           28.96444117622544        7.60434302176440       -4.87401456570793
C           29.67866691915949        5.32536622058794       -4.53521227549179
C           29.66019538606669        4.16667868947990       -3.77942378701515
C           30.04951991589814        2.36411696954929       -1.28409672538246
C           31.30446447644303        3.04606421447860       -1.40526085519264
C           32.24472797051166        2.23875557497153       -0.85948800247465
C           31.56214439882467        1.07168882661943       -0.39242900256807
N           30.21218944234165        1.17310543706457       -0.62191450825398
H           33.28525586567746       -0.01952168515100        0.17733275538928
H           33.28229886788009       -2.43513702737569        1.13883787342618
H           31.36994838258955       -4.07484007342033        2.10444272689038
H           27.52112915328450       -5.27273145073471        1.35219941970859
H           27.49325268894497       -7.31987819077432        2.72616654186986
H           28.46984411506938       -8.47934165916579        4.57522703508138
H           29.45562728766805       -7.72264993375102        5.71754796413886
H           29.98630629048823       -5.39206787214222        5.63889224612210
H           30.00614127196232       -3.34625625844452        4.26206542083930
H           26.16760118514721       -3.55050081290661        2.81425705816788
H           24.29438729757941       -1.97614211515098        1.68427158616450
H           24.38940513308918        1.78375396790743       -1.94729748128256
H           26.30977719546733        3.39940287543209       -2.93519470224761
H           27.51751393643255        5.13286673302510       -1.34051365709157
H           27.55008481450120        7.20615704626351       -2.67514189615565
H           28.17367315718104        8.21651052157323       -4.75115213773260
H           29.25350499438476        7.50067051610506       -5.83354140759329
H           30.28550360615666        5.38128271914354       -5.43240064083618
H           30.24481672769447        3.30975196219323       -4.09596298489702
H           31.43641107914143        4.01990238438118       -1.84812744664285
H           33.30694703762456        2.40291214804730       -0.77049852375601
C           21.42716875573366       -0.07537965260926       -0.14967180072432
C           20.20592026617086       -0.05922670419385       -0.14532775097674
C           22.77818983058114       -0.08417546797333       -0.14249567083548
C           23.99944186573390       -0.08778368904183       -0.12823736598138

          :  Hamiltonian                  GFN1-xTB          :
         :: total energy            -212.978173064673 Eh    ::
         :: gradient norm              0.000738092073 Eh/a0 ::
         :: HOMO-LUMO gap              1.179541805444 eV    ::
         :: SCC energy              -216.330229925118 Eh    ::
         :: repulsion energy           3.461726328305 Eh    ::

    * Orbital Energies and Occupations

         #    Occupation            Energy/Eh            Energy/eV
      -------------------------------------------------------------
         1        2.0000           -0.7785314             -21.1849
       ...           ...                  ...                  ...
       185        2.0000           -0.3962431             -10.7823
       186        2.0000           -0.3895203             -10.5994
       187        2.0000           -0.3895034             -10.5989
       188        2.0000           -0.3893054             -10.5935
       189        2.0000           -0.3893022             -10.5935
       190        2.0000           -0.3882871             -10.5658
       191        2.0000           -0.3882823             -10.5657
       192        2.0000           -0.3872118             -10.5366
       193        2.0000           -0.3872083             -10.5365
       194        2.0000           -0.3871674             -10.5354
       195        2.0000           -0.3871628             -10.5352
       196        2.0000           -0.3830248             -10.4226
       197        2.0000           -0.3741091             -10.1800 (HOMO)
       198                         -0.3307617              -9.0005 (LUMO)
       199                         -0.3199070              -8.7051
       200                         -0.3199032              -8.7050
       201                         -0.3190762              -8.6825
       202                         -0.3189761              -8.6798
       203                         -0.3180969              -8.6559
       204                         -0.2898687              -7.8877
       205                         -0.2828121              -7.6957
       206                         -0.2567526              -6.9866
       207                         -0.2567397              -6.9862
       208                         -0.2565073              -6.9799
       ...                                ...                  ...
       422                          1.5259764              41.5239
      -------------------------------------------------------------
                  HL-Gap            0.0433474 Eh            1.1795 eV

Wiberg/Mayer (AO) data.
largest (>0.10) Wiberg bond orders for each atom

     #   Z sym  total        # sym  WBO       # sym  WBO       # sym  WBO
 ---------------------------------------------------------------------------
     1  28 Ni   3.018 --    39 N    0.665     7 N    0.664    26 N    0.662
                            19 N    0.662
     2   6 C    3.933 --    38 C    1.363     3 C    1.363    40 H    0.970
     3   6 C    3.925 --     2 C    1.363     7 N    1.212     4 C    1.178
     4   6 C    3.959 --     5 C    1.645     3 C    1.178    41 H    0.975
     5   6 C    3.963 --     4 C    1.645     6 C    1.180    42 H    0.973
     6   6 C    3.918 --     8 C    1.318     7 N    1.222     5 C    1.180
     7   7 N    3.401 --     6 C    1.222     3 C    1.212     1 Ni   0.664
     8   6 C    3.939 --    16 C    1.327     6 C    1.318     9 C    1.032
     9   6 C    3.988 --    10 C    1.381    15 C    1.380     8 C    1.032
    10   6 C    3.988 --    11 C    1.468     9 C    1.381    43 H    0.973
    11   6 C    3.990 --    10 C    1.468    12 C    1.354    44 H    0.972
    12   6 C    3.952 --    11 C    1.354    14 C    1.354    13 N    1.115
    13   7 N    3.134 --    12 C    1.115    45 H    0.934    46 H    0.933
    14   6 C    3.990 --    15 C    1.469    12 C    1.354    47 H    0.972
    15   6 C    3.988 --    14 C    1.469     9 C    1.380    48 H    0.973
    16   6 C    3.914 --     8 C    1.327    19 N    1.206    17 C    1.186
    17   6 C    3.960 --    18 C    1.633    16 C    1.186    49 H    0.973
    18   6 C    3.961 --    17 C    1.633    20 C    1.193    50 H    0.973
    19   7 N    3.405 --    20 C    1.237    16 C    1.206     1 Ni   0.662
    20   6 C    3.906 --    21 C    1.264    19 N    1.237    18 C    1.193
    21   6 C    3.942 --    20 C    1.264    22 C    1.264   122 C    1.180
    22   6 C    3.906 --    21 C    1.264    26 N    1.237    23 C    1.194
    23   6 C    3.961 --    24 C    1.633    22 C    1.194    51 H    0.974
    24   6 C    3.960 --    23 C    1.633    25 C    1.186    52 H    0.973
    25   6 C    3.914 --    27 C    1.326    26 N    1.206    24 C    1.186
    26   7 N    3.405 --    22 C    1.237    25 C    1.206     1 Ni   0.662
    27   6 C    3.939 --    25 C    1.326    35 C    1.319    28 C    1.033
    28   6 C    3.988 --    29 C    1.381    34 C    1.381    27 C    1.033
    29   6 C    3.988 --    30 C    1.469    28 C    1.381    53 H    0.973
    30   6 C    3.990 --    29 C    1.469    31 C    1.354    54 H    0.972
    31   6 C    3.952 --    30 C    1.354    33 C    1.354    32 N    1.116
    32   7 N    3.135 --    31 C    1.116    55 H    0.933    56 H    0.933
    33   6 C    3.990 --    34 C    1.469    31 C    1.354    57 H    0.972
    34   6 C    3.988 --    33 C    1.469    28 C    1.381    58 H    0.973
    35   6 C    3.918 --    27 C    1.319    39 N    1.222    36 C    1.179
    36   6 C    3.963 --    37 C    1.645    35 C    1.179    59 H    0.973
    37   6 C    3.959 --    36 C    1.645    38 C    1.178    60 H    0.975
    38   6 C    3.925 --     2 C    1.363    39 N    1.212    37 C    1.178
    39   7 N    3.400 --    35 C    1.222    38 C    1.212     1 Ni   0.665
    40   1 H    1.001 --     2 C    0.970
    41   1 H    0.998 --     4 C    0.975
    42   1 H    1.005 --     5 C    0.973
    43   1 H    1.005 --    10 C    0.973
    44   1 H    0.999 --    11 C    0.972
    45   1 H    0.961 --    13 N    0.934
    46   1 H    0.961 --    13 N    0.933
    47   1 H    0.999 --    14 C    0.972
    48   1 H    1.005 --    15 C    0.973
    49   1 H    1.005 --    17 C    0.973
    50   1 H    1.002 --    18 C    0.973
    51   1 H    1.002 --    23 C    0.974
    52   1 H    1.005 --    24 C    0.973
    53   1 H    1.005 --    29 C    0.973
    54   1 H    0.999 --    30 C    0.972
    55   1 H    0.961 --    32 N    0.933
    56   1 H    0.961 --    32 N    0.933
    57   1 H    0.999 --    33 C    0.972
    58   1 H    1.005 --    34 C    0.973
    59   1 H    1.005 --    36 C    0.973
    60   1 H    0.998 --    37 C    0.975
    61  28 Ni   3.018 --    99 N    0.665    67 N    0.664    86 N    0.662
                            79 N    0.662
    62   6 C    3.933 --    98 C    1.363    63 C    1.363   100 H    0.970
    63   6 C    3.925 --    62 C    1.363    67 N    1.212    64 C    1.178
    64   6 C    3.959 --    65 C    1.644    63 C    1.178   101 H    0.975
    65   6 C    3.963 --    64 C    1.644    66 C    1.180   102 H    0.973
    66   6 C    3.918 --    68 C    1.318    67 N    1.222    65 C    1.180
    67   7 N    3.401 --    66 C    1.222    63 C    1.212    61 Ni   0.664
    68   6 C    3.939 --    76 C    1.327    66 C    1.318    69 C    1.033
    69   6 C    3.988 --    70 C    1.381    75 C    1.380    68 C    1.033
    70   6 C    3.988 --    71 C    1.468    69 C    1.381   103 H    0.973
    71   6 C    3.990 --    70 C    1.468    72 C    1.354   104 H    0.972
    72   6 C    3.952 --    71 C    1.354    74 C    1.354    73 N    1.115
    73   7 N    3.134 --    72 C    1.115   105 H    0.934   106 H    0.933
    74   6 C    3.990 --    75 C    1.469    72 C    1.354   107 H    0.972
    75   6 C    3.988 --    74 C    1.469    69 C    1.380   108 H    0.973
    76   6 C    3.914 --    68 C    1.327    79 N    1.206    77 C    1.186
    77   6 C    3.960 --    78 C    1.633    76 C    1.186   109 H    0.973
    78   6 C    3.961 --    77 C    1.633    80 C    1.193   110 H    0.973
    79   7 N    3.405 --    80 C    1.237    76 C    1.206    61 Ni   0.662
    80   6 C    3.906 --    81 C    1.264    79 N    1.237    78 C    1.193
    81   6 C    3.942 --    80 C    1.264    82 C    1.264   124 C    1.180
    82   6 C    3.906 --    81 C    1.264    86 N    1.237    83 C    1.193
    83   6 C    3.961 --    84 C    1.633    82 C    1.193   111 H    0.973
    84   6 C    3.960 --    83 C    1.633    85 C    1.186   112 H    0.973
    85   6 C    3.914 --    87 C    1.326    86 N    1.206    84 C    1.186
    86   7 N    3.405 --    82 C    1.237    85 C    1.206    61 Ni   0.662
    87   6 C    3.939 --    85 C    1.326    95 C    1.319    88 C    1.033
    88   6 C    3.988 --    89 C    1.381    94 C    1.381    87 C    1.033
    89   6 C    3.988 --    90 C    1.469    88 C    1.381   113 H    0.973
    90   6 C    3.990 --    89 C    1.469    91 C    1.354   114 H    0.972
    91   6 C    3.952 --    90 C    1.354    93 C    1.354    92 N    1.116
    92   7 N    3.134 --    91 C    1.116   116 H    0.933   115 H    0.933
    93   6 C    3.990 --    94 C    1.469    91 C    1.354   117 H    0.972
    94   6 C    3.988 --    93 C    1.469    88 C    1.381   118 H    0.973
    95   6 C    3.918 --    87 C    1.319    99 N    1.222    96 C    1.179
    96   6 C    3.963 --    97 C    1.645    95 C    1.179   119 H    0.973
    97   6 C    3.959 --    96 C    1.645    98 C    1.178   120 H    0.975
    98   6 C    3.925 --    62 C    1.363    99 N    1.212    97 C    1.178
    99   7 N    3.400 --    95 C    1.222    98 C    1.212    61 Ni   0.665
   100   1 H    1.001 --    62 C    0.970
   101   1 H    0.998 --    64 C    0.975
   102   1 H    1.005 --    65 C    0.973
   103   1 H    1.005 --    70 C    0.973
   104   1 H    0.999 --    71 C    0.972
   105   1 H    0.961 --    73 N    0.934
   106   1 H    0.961 --    73 N    0.933
   107   1 H    0.999 --    74 C    0.972
   108   1 H    1.005 --    75 C    0.973
   109   1 H    1.005 --    77 C    0.973
   110   1 H    1.002 --    78 C    0.973
   111   1 H    1.002 --    83 C    0.973
   112   1 H    1.005 --    84 C    0.973
   113   1 H    1.005 --    89 C    0.973
   114   1 H    0.999 --    90 C    0.972
   115   1 H    0.961 --    92 N    0.933
   116   1 H    0.961 --    92 N    0.933
   117   1 H    0.999 --    93 C    0.972
   118   1 H    1.005 --    94 C    0.973
   119   1 H    1.005 --    96 C    0.973
   120   1 H    0.998 --    97 C    0.975
   121   6 C    3.937 --   122 C    2.486   123 C    1.301
   122   6 C    3.926 --   121 C    2.486    21 C    1.180   124 C    0.200
   123   6 C    3.937 --   124 C    2.486   121 C    1.301
   124   6 C    3.926 --   123 C    2.486    81 C    1.180   122 C    0.200
 ---------------------------------------------------------------------------

           -------------------------------------------------
          | TOTAL ENERGY             -212.978173064673 Eh   |
          | GRADIENT NORM               0.000738092073 Eh/α |
          | HOMO-LUMO GAP               1.179541805444 eV   |
           -------------------------------------------------

 * finished run on 2022/07/30 at 04:10:15.292
