   * xtb version 6.5.1 (b24c23e) compiled by 'conda@728c89f4b128' on 2022-07-12
          program call               : xtb Cu_Py_C4_4.xyz --gfn 1 --opt -T 48

   ID    Z sym.   atoms
    1   29 Cu     1, 55, 121, 174
    2    6 C      2-6, 8-11, 13-17, 19-24, 26-29, 31-36, 56-60, 62-65, 67-71,
                  73-78, 80-83, 85-90, 109-120, 122-126, 128-131, 133-137,
                  139-144, 146-149, 151-156, 175-179, 181-184, 186-190,
                  192-197, 199-202, 204-209
    3    7 N      7, 12, 18, 25, 30, 37, 61, 66, 72, 79, 84, 91, 127, 132,
                  138, 145, 150, 157, 180, 185, 191, 198, 203, 210
    4    1 H      38-54, 92-108, 158-173, 211-226

          :  Hamiltonian                  GFN1-xTB          :
 * total energy  :  -407.7715857 Eh     change        0.5103573E-08 Eh
 * total energy  :  -408.2444284 Eh     change       -0.4728427E+00 Eh
 * total energy  :  -408.4334723 Eh     change       -0.1890439E+00 Eh
 * total energy  :  -408.5111804 Eh     change       -0.7770814E-01 Eh
 * total energy  :  -408.5740613 Eh     change       -0.6288090E-01 Eh
 * total energy  :  -408.6365945 Eh     change       -0.6253321E-01 Eh
 * total energy  :  -408.6813913 Eh     change       -0.4479679E-01 Eh
 * total energy  :  -408.7082869 Eh     change       -0.2689559E-01 Eh
 * total energy  :  -408.7292420 Eh     change       -0.2095509E-01 Eh
 * total energy  :  -408.7472768 Eh     change       -0.1803477E-01 Eh
 * total energy  :  -408.8558334 Eh     change       -0.3314088E-04 Eh
 * total energy  :  -408.8558463 Eh     change       -0.1292676E-04 Eh
 * total energy  :  -408.8558691 Eh     change       -0.2284595E-04 Eh
 * total energy  :  -408.8558768 Eh     change       -0.7628899E-05 Eh
 * total energy  :  -408.8558915 Eh     change       -0.1475815E-04 Eh
 * total energy  :  -408.8558986 Eh     change       -0.7035086E-05 Eh
 * total energy  :  -408.8559054 Eh     change       -0.6840724E-05 Eh
 * total energy  :  -408.8559109 Eh     change       -0.5499389E-05 Eh
 * total energy  :  -408.8559150 Eh     change       -0.4053255E-05 Eh
   *** GEOMETRY OPTIMIZATION CONVERGED AFTER 57 ITERATIONS ***

 final structure:
================
226
 xtb: 6.5.1 (b24c23e)
Cu          37.06276715245566       -0.02045961283750       -0.01753600415380
C           33.65686366290001       -0.05536462476715       -0.04286879529816
C           34.29262377452099       -1.28104413342113        0.08480068164987
C           33.61799868392526       -2.53897603998927        0.23309263176308
C           34.57703847525568       -3.48995113295661        0.35269715388168
C           35.84753899652772       -2.82164338087337        0.27079741615802
N           35.64355711707368       -1.48105804468157        0.11238001963427
C           37.09193915141977       -3.44632153237454        0.37798763365176
C           37.10494300137186       -4.92040649094314        0.54306144421108
C           37.61532863621678       -5.51712375689018        1.69515437719081
C           37.60454033256002       -6.89893999769679        1.80201646833456
N           37.13151503989291       -7.69563428956945        0.84899530728316
C           36.64526522196316       -7.13489156916088       -0.25356181835791
C           36.60792314758852       -5.76338268167700       -0.45009643434030
C           38.32484748180440       -2.79268888506670        0.33901813992644
C           39.60262267133548       -3.44331210713272        0.40987218260430
C           40.54827650635728       -2.47559431233291        0.30704122188749
N           38.51257515020591       -1.44451111565203        0.18640216693852
C           39.85651294000542       -1.22955818269242        0.16460503780282
C           40.49141530452634        0.01259867763576       -0.00422678602560
C           39.83324848371707        1.24264129765120       -0.17190927710228
C           40.50094566372812        2.49467971020303       -0.36601518636296
C           39.53736226914850        3.44415400187473       -0.47340640939096
C           38.27278377650320        2.77790381194696       -0.33905642505885
N           38.48565682040240        1.43575381304194       -0.16837626226363
C           37.02775613105914        3.40717474295933       -0.39897954333138
C           37.01536825917820        4.88234995975719       -0.54992044217453
C           36.44849008301442        5.49413910243696       -1.66724998132263
C           36.46416179773661        6.87689621771827       -1.76156640296120
N           36.99406850598735        7.66092361971142       -0.82828496012969
C           37.53459419254111        7.08596323670459        0.24129670249274
C           37.57120887536140        5.71254062323534        0.42295639804562
C           35.79454609647681        2.75561461675248       -0.32580206987395
C           34.51191481123791        3.40513249583923       -0.34972126488825
C           33.57109335937438        2.43330406506195       -0.25549507904879
C           34.26926140959268        1.18301115657909       -0.16218876542137
N           35.61600777249907        1.40790164695496       -0.20012556115256
H           32.57179259027642       -0.06522624598340       -0.03852723095499
H           32.54663580400108       -2.66293761944690        0.24889759567591
H           34.44386867262122       -4.55012070782336        0.49632509912765
H           38.00164826365946       -4.90675420509248        2.50273945138401
H           37.99267753648597       -7.38660564411215        2.69150997009123
H           36.26900551986639       -7.81174363912770       -1.01511530532196
H           36.21232213221494       -5.35108495325353       -1.37072636469227
H           39.75291639536602       -4.50581715570126        0.51190447753509
H           41.62076506178177       -2.58641138692150        0.31805614784202
H           41.57066702853299        2.62021235026238       -0.41694955027794
H           39.66688680473769        4.50090333235111       -0.64204715161207
H           36.01589119860279        4.89483974600582       -2.45953653816427
H           36.03272640464485        7.37581348079844       -2.62447192009366
H           37.95759167984445        7.75260312582863        0.98716336702620
H           38.01251169078868        5.28845769826346        1.31708251738860
H           34.35844431883667        4.47003535277624       -0.41843213284659
H           32.49781199220073        2.53967884405862       -0.24187081791903
Cu          77.48335279192889        0.04003254835111       -0.01854123686325
C           80.88920548603393        0.05612750835017       -0.06577363589361
C           80.25617183943542        1.26704651921611       -0.30189795035546
C           80.93362478201912        2.51150898496059       -0.52963817292019
C           79.97670549745318        3.45670565977120       -0.70104157247463
C           78.70478416094744        2.79566213427621       -0.58868529685150
N           78.90570852120808        1.46855758886517       -0.33874715871809
C           77.46132772949825        3.42301263507322       -0.69048863099025
C           77.44974568164368        4.87927478763088       -0.97215963681985
C           76.92240183809406        5.78878173186246       -0.05622774789102
C           76.93461153610846        7.14039977845721       -0.36237978325744
N           77.42429079454224        7.62081716638405       -1.50090173637209
C           77.92631472829841        6.76032240746904       -2.38064878796724
C           77.96399632760242        5.39206480374845       -2.16226790335320
C           76.22688206270976        2.78677569017167       -0.54838056587727
C           74.95075915728101        3.42577974878994       -0.70345543353247
C           74.00299427179229        2.47430075607458       -0.50872706825298
N           76.03637007931616        1.45842081322325       -0.27414823610023
C           74.69207818500668        1.24790402402350       -0.23982431699318
C           74.05467383934334        0.02172395228114        0.01530961741042
C           74.71044563370063       -1.19599847535372        0.26414037989872
C           74.03935651941606       -2.44097202043289        0.48917606597883
C           75.00086503495002       -3.38182068130629        0.66749741743345
C           76.26769271666110       -2.71494498489531        0.56059375317502
N           76.05777223065164       -1.38522954885081        0.30739580467810
C           77.51155567455888       -3.34031602619951        0.66642255838381
C           77.52218839220923       -4.79394010542517        0.96000946031308
C           78.06159401484939       -5.71105618882640        0.05880166772600
C           78.04412948604654       -7.06030450585378        0.37539162641491
N           77.53769669607874       -7.53167554016847        1.51024427549279
C           77.02422020473713       -6.66396520433255        2.37631583657679
C           76.99164480627321       -5.29747467012140        2.14717928688597
C           78.74575717225976       -2.70412416228388        0.51560177960163
C           80.02747120628739       -3.33774660901739        0.66818217125921
C           80.97018016294162       -2.38578656647370        0.45951970882807
C           80.27422417115967       -1.16076854021327        0.18682693151846
N           78.92691076744431       -1.38115399239265        0.23118516742731
H           81.97430082197353        0.06357112879139       -0.06869104916926
H           82.00525443970412        2.63297608734488       -0.54678116923201
H           80.11222311129329        4.51162624966794       -0.87737827294753
H           76.52169045687290        5.44331674540866        0.88935256659069
H           76.53352769422899        7.86819930426962        0.33698103987122
H           78.31599644025249        7.18273185787450       -3.30230433332674
H           78.37297841068856        4.72709226897807       -2.91365842151243
H           74.80326011619209        4.46629926204385       -0.94323023195351
H           72.93083299213333        2.58247504312909       -0.54623838227595
H           72.96889248667665       -2.56996133158965        0.49981264386152
H           74.86793623515727       -4.43715900015280        0.84208244254886
H           78.47422692890677       -5.37387059438439       -0.88465664907382
H           78.45405650991424       -7.79375058167069       -0.31288508802327
H           76.61997443810890       -7.07909485335158        3.29495273002234
H           76.57281335542181       -4.62643791470408        2.88765984417046
H           80.17902718782521       -4.37594464839762        0.91614550367599
H           82.04346494342668       -2.48810747994314        0.49153399240665
C           43.12055139457336        0.02921788705175       -0.02328721483665
C           41.89918208867974        0.02287802741560       -0.01651582083722
C           44.47154317198706        0.03229759029146       -0.03130673802223
C           45.69302169091360        0.02888540616372       -0.03836184302480
C           56.59918137593242        0.01910143108142       -0.02670783678804
C           55.37705901214000        0.01912491659347       -0.03001955727200
C           57.94875414156522        0.01582078932062       -0.02501025669648
C           59.17086571806116        0.01009167858428       -0.02393507495507
C           70.07527925072431        0.00003325169678       -0.00064551757979
C           68.85368512150690        0.00094609165776       -0.00634047704370
C           71.42586922340901        0.00415586748568        0.00681038054680
C           72.64731332369240        0.01152696408610        0.01151927551547
Cu          50.53528514161089        0.01872543798760       -0.04089238671484
C           47.10027899177219        0.02441499985280       -0.04210169284252
C           47.74600319245648       -0.87642054616927        0.82259838622211
C           47.06585939903090       -1.75114819898643        1.72997035703282
C           48.02036225293325       -2.45141425656550        2.39381815294087
C           49.29054043565897       -2.01369550040520        1.88871073080596
N           49.09071043979434       -1.05059965765310        0.93609274288188
C           50.53047578360653       -2.48276378735868        2.32704939178624
C           50.52884409098290       -3.55606276748259        3.35065942935600
C           49.97361421881734       -4.80781942305918        3.08834731870649
C           49.99867223777176       -5.77869889728013        4.07717320529596
N           50.52619818887263       -5.57433591560935        5.27991030817787
C           51.05519833384237       -4.38285178225163        5.53905305679296
C           51.08282926731992       -3.35138927614965        4.61376353290859
C           51.77217105345790       -2.02350111546839        1.88368228618333
C           53.04020613811193       -2.55530904075471        2.29494002319455
C           53.99766995683001       -1.85618095830385        1.63394099231225
N           51.97631448523571       -1.01985833744647        0.97454344781534
C           53.32135767616328       -0.89966968825636        0.81038174161222
C           53.97143454170212        0.01940118843593       -0.03269252137897
C           53.32460068895507        0.93709435882426       -0.87969495825121
C           54.00412114802232        1.89256858827392       -1.70175564393253
C           53.04945465399484        2.58758175252249       -2.37105341142248
C           51.77981255624471        2.05495731837357       -1.96570463591781
N           51.98023531038424        1.05511434514745       -1.05163845442160
C           50.54014301204668        2.51076582590240       -2.41870101806779
C           50.54531238418645        3.57403737071161       -3.45258349105295
C           51.11266312071179        3.35669039785121       -4.70775257880792
C           51.09397144563763        4.37805705988573       -5.64424293716180
N           50.56095476310403        5.57162245572889       -5.40342960977929
C           50.02033321905054        5.78799164444501       -4.20867507347325
C           49.98593336765767        4.82781224275038       -3.20965535258113
C           49.29811106126468        2.04621413321958       -1.98138730282612
C           48.02962485783280        2.48407105424297       -2.49070151644841
C           47.07239307783522        1.79202683503269       -1.82214480731165
C           47.74916565500724        0.92029084825992       -0.90940051321308
N           49.09452959890435        1.08950040352135       -1.02304222631263
H           45.99518753539223       -1.80864977483451        1.84397713789600
H           47.88071206718116       -3.18948608559627        3.16691393954916
H           49.54231367901252       -5.02299385652221        2.11794029662340
H           49.57684474047837       -6.76279490270352        3.89486926383755
H           51.47601961747345       -4.24565079110915        6.53088488575390
H           51.51528925166009       -2.39230052413286        4.87289875158412
H           53.17638052894939       -3.36870561155556        2.98904099082438
H           55.06797809908449       -1.97571728371806        1.68693116538443
H           55.07450344523059        2.01402166246599       -1.74847119180588
H           53.18852587183433        3.39931620928100       -3.06650985477476
H           51.54903004251577        2.39541072849914       -4.95185406164466
H           51.52603395911586        4.23091861595335       -6.62981745448770
H           49.59528570106820        6.77338393089798       -4.04157665426461
H           49.54463770683257        5.05341575552045       -2.24614291586548
H           47.89264335203379        3.21690416030754       -3.26924116836606
H           46.00194360031013        1.85206445065119       -1.93708554048606
Cu          64.01188334647208       -0.00233063989054       -0.02352680454114
C           60.57644350522406        0.00565274522836       -0.02423487836559
C           61.22283002821430       -0.87562764926453        0.86100002089222
C           60.54352900896824       -1.72989616931666        1.78793316815244
C           61.49781862557558       -2.43237303822365        2.45005855130473
C           62.76680359752962       -2.01618035203223        1.92444313790548
N           62.56666807239560       -1.06012779700040        0.96447139897933
C           64.00603571603298       -2.50342807092134        2.34454741701646
C           64.00297556003075       -3.57704054164704        3.36757338766215
C           63.41623833976111       -4.81663281832437        3.11583786711090
C           63.43805999162053       -5.78786017333198        4.10430957229788
N           63.99161557490255       -5.59504316221517        5.29723964785249
C           64.55151579187002       -4.41554070874294        5.54604929360099
C           64.58483218764310       -3.38486164799033        4.62008552035601
C           65.24754194950381       -2.06137794257323        1.88300493165778
C           66.51429272612496       -2.61142658398148        2.27376007963082
C           67.47199318078920       -1.91314849578215        1.61217837102838
N           65.45210336043785       -1.05113168170449        0.98161919895154
C           66.79696351828225       -0.93920212832762        0.80809324593438
C           67.44699211481139       -0.00173352265213       -0.01362809419114
C           66.80131441063031        0.93316102781529       -0.84162890744337
C           67.48047252937265        1.90513503519886       -1.64463119851066
C           66.52638453217914        2.59958818243679       -2.31539069872433
C           65.25764959901515        2.05007186710720       -1.93030110098162
N           65.45740929820792        1.04307435005282       -1.02431880193600
C           64.01858362409602        2.49190331830052       -2.39882570080072
C           64.02209048966658        3.56030317639581       -3.42726064209816
C           64.60991596177286        3.36026247513713       -4.67577960638369
C           64.58450661662113        4.38641873445542       -5.60699172951518
N           64.02663879889323        5.56872761390673       -5.36696675531301
C           63.46704230614758        5.76887612095603       -4.17810907732623
C           63.43725087928738        4.80264443732893       -3.18490758334638
C           62.77695631692877        2.01056980675077       -1.97912159256377
C           61.51009830736398        2.43045629738482       -2.50695625316799
C           60.55226044372926        1.73619594183491       -1.84133441663347
C           61.22726123499815        0.88203922578396       -0.91113204949569
N           62.57197944603022        1.05945902628512       -1.01521690984809
H           59.47360864840729       -1.77425056771216        1.91427622921207
H           61.35892312330782       -3.15860098348204        3.23441686116628
H           62.96270017425393       -5.02224457412293        2.15353181942401
H           62.99125718661779       -6.76235959215208        3.93016628921632
H           64.99312823660564       -4.28764156260659        6.53005606883379
H           65.04264139544964       -2.43543950538343        4.87114612119554
H           66.64945760182515       -3.43458930537663        2.95647557694376
H           68.54159277632243       -2.04328294399096        1.65336405870739
H           68.55018644857401        2.03622876934538       -1.67938204835931
H           66.66506163518625        3.42033523812642       -3.00030918945787
H           65.06645508941016        2.40833422565024       -4.91958490991667
H           65.03113506576324        4.25244757892817       -6.58790858605080
H           63.02208998789621        6.74547523479821       -4.01111083799579
H           62.97929865655701        5.01451083452705       -2.22606624185229
H           61.37472873956888        3.15358727161372       -3.29478070872475
H           59.48257016569323        1.78559568856389       -1.96772332439170

          :  Hamiltonian                  GFN1-xTB          :
         :: total energy            -408.855914952784 Eh    ::
         :: gradient norm              0.000453858017 Eh/a0 ::
         :: HOMO-LUMO gap              0.000190459286 eV    ::
         :: SCC energy              -415.252831310969 Eh    ::
         :: repulsion energy           6.606778993581 Eh    ::

    * Orbital Energies and Occupations

         #    Occupation            Energy/Eh            Energy/eV
      -------------------------------------------------------------
         1        2.0000           -0.7712264             -20.9861
       ...           ...                  ...                  ...
       367        2.0000           -0.4145987             -11.2818
       368        2.0000           -0.4144719             -11.2784
       369        2.0000           -0.4142404             -11.2721
       370        2.0000           -0.4024280             -10.9506
       371        2.0000           -0.4023903             -10.9496
       372        2.0000           -0.4022919             -10.9469
       373        2.0000           -0.4022337             -10.9453
       374        2.0000           -0.4005044             -10.8983
       375        2.0000           -0.3956951             -10.7674
       376        2.0000           -0.3901060             -10.6153
       377        2.0000           -0.3837004             -10.4410
       378        1.0391           -0.3628096              -9.8726
       379        0.9903           -0.3627168              -9.8700 (HOMO)
       380        0.9866           -0.3627098              -9.8698 (LUMO)
       381        0.9840           -0.3627048              -9.8697
       382        0.0000           -0.3490696              -9.4987
       383                         -0.3421063              -9.3092
       384                         -0.3358096              -9.1378
       385                         -0.3355073              -9.1296
       386                         -0.3354599              -9.1283
       387                         -0.3352675              -9.1231
       388                         -0.3351783              -9.1207
       389                         -0.3301280              -8.9832
       390                         -0.3107236              -8.4552
       ...                                ...                  ...
       792                          1.5128485              41.1667
      -------------------------------------------------------------
                  HL-Gap            0.0000070 Eh            0.0002 eV

Wiberg/Mayer (AO) data.
largest (>0.10) Wiberg bond orders for each atom

     #   Z sym  total        # sym  WBO       # sym  WBO       # sym  WBO
 ---------------------------------------------------------------------------
     1  29 Cu   2.193 --     7 N    0.507    37 N    0.507    25 N    0.504
                            18 N    0.504
     2   6 C    3.931 --     3 C    1.362    36 C    1.362    38 H    0.971
     3   6 C    3.916 --     2 C    1.362     7 N    1.229     4 C    1.170
     4   6 C    3.955 --     5 C    1.657     3 C    1.170    39 H    0.975
     5   6 C    3.958 --     4 C    1.657     6 C    1.171    40 H    0.973
     6   6 C    3.914 --     8 C    1.320     7 N    1.238     5 C    1.171
     7   7 N    3.245 --     6 C    1.238     3 C    1.229     1 Cu   0.507
     8   6 C    3.935 --    15 C    1.326     6 C    1.320     9 C    1.026
     9   6 C    3.986 --    14 C    1.393    10 C    1.393     8 C    1.026
                            12 N    0.107
    10   6 C    3.987 --    11 C    1.442     9 C    1.393    41 H    0.973
                            13 C    0.109
    11   6 C    3.972 --    10 C    1.442    12 N    1.416    42 H    0.972
                            14 C    0.109
    12   7 N    3.030 --    13 C    1.416    11 C    1.416     9 C    0.107
    13   6 C    3.972 --    14 C    1.442    12 N    1.416    43 H    0.972
                            10 C    0.109
    14   6 C    3.987 --    13 C    1.442     9 C    1.393    44 H    0.973
                            11 C    0.109
    15   6 C    3.909 --     8 C    1.326    18 N    1.222    16 C    1.178
    16   6 C    3.955 --    17 C    1.644    15 C    1.178    45 H    0.973
    17   6 C    3.957 --    16 C    1.644    19 C    1.186    46 H    0.974
    18   7 N    3.249 --    19 C    1.254    15 C    1.222     1 Cu   0.504
    19   6 C    3.898 --    20 C    1.263    18 N    1.254    17 C    1.186
    20   6 C    3.940 --    21 C    1.264    19 C    1.263   110 C    1.180
    21   6 C    3.898 --    20 C    1.264    25 N    1.254    22 C    1.186
    22   6 C    3.957 --    23 C    1.643    21 C    1.186    47 H    0.974
    23   6 C    3.955 --    22 C    1.643    24 C    1.179    48 H    0.973
    24   6 C    3.909 --    26 C    1.325    25 N    1.223    23 C    1.179
    25   7 N    3.249 --    21 C    1.254    24 C    1.223     1 Cu   0.504
    26   6 C    3.935 --    24 C    1.325    33 C    1.320    27 C    1.028
    27   6 C    3.986 --    28 C    1.393    32 C    1.392    26 C    1.028
                            30 N    0.107
    28   6 C    3.987 --    29 C    1.442    27 C    1.393    49 H    0.973
                            31 C    0.108
    29   6 C    3.972 --    28 C    1.442    30 N    1.416    50 H    0.972
                            32 C    0.108
    30   7 N    3.030 --    29 C    1.416    31 C    1.415    27 C    0.107
    31   6 C    3.972 --    32 C    1.442    30 N    1.415    51 H    0.972
                            28 C    0.108
    32   6 C    3.987 --    31 C    1.442    27 C    1.392    52 H    0.973
                            29 C    0.108
    33   6 C    3.914 --    26 C    1.320    37 N    1.238    34 C    1.172
    34   6 C    3.958 --    35 C    1.657    33 C    1.172    53 H    0.973
    35   6 C    3.955 --    34 C    1.657    36 C    1.170    54 H    0.975
    36   6 C    3.916 --     2 C    1.362    37 N    1.229    35 C    1.170
    37   7 N    3.245 --    33 C    1.238    36 C    1.229     1 Cu   0.507
    38   1 H    1.001 --     2 C    0.971
    39   1 H    0.998 --     4 C    0.975
    40   1 H    1.004 --     5 C    0.973
    41   1 H    1.004 --    10 C    0.973
    42   1 H    1.013 --    11 C    0.972
    43   1 H    1.013 --    13 C    0.972
    44   1 H    1.004 --    14 C    0.973
    45   1 H    1.004 --    16 C    0.973
    46   1 H    1.002 --    17 C    0.974
    47   1 H    1.002 --    22 C    0.974
    48   1 H    1.004 --    23 C    0.973
    49   1 H    1.004 --    28 C    0.973
    50   1 H    1.013 --    29 C    0.972
    51   1 H    1.013 --    31 C    0.972
    52   1 H    1.004 --    32 C    0.973
    53   1 H    1.004 --    34 C    0.973
    54   1 H    0.998 --    35 C    0.975
    55  29 Cu   2.193 --    91 N    0.507    61 N    0.507    79 N    0.504
                            72 N    0.504
    56   6 C    3.931 --    90 C    1.362    57 C    1.362    92 H    0.971
    57   6 C    3.916 --    56 C    1.362    61 N    1.229    58 C    1.170
    58   6 C    3.955 --    59 C    1.657    57 C    1.170    93 H    0.975
    59   6 C    3.958 --    58 C    1.657    60 C    1.172    94 H    0.973
    60   6 C    3.914 --    62 C    1.320    61 N    1.238    59 C    1.172
    61   7 N    3.244 --    60 C    1.238    57 C    1.229    55 Cu   0.507
    62   6 C    3.935 --    69 C    1.326    60 C    1.320    63 C    1.026
    63   6 C    3.986 --    68 C    1.394    64 C    1.393    62 C    1.026
                            66 N    0.107
    64   6 C    3.987 --    65 C    1.442    63 C    1.393    95 H    0.973
                            67 C    0.109
    65   6 C    3.972 --    64 C    1.442    66 N    1.415    96 H    0.972
                            68 C    0.109
    66   7 N    3.030 --    67 C    1.416    65 C    1.415    63 C    0.107
    67   6 C    3.972 --    68 C    1.442    66 N    1.416    97 H    0.972
                            64 C    0.109
    68   6 C    3.987 --    67 C    1.442    63 C    1.394    98 H    0.973
                            65 C    0.109
    69   6 C    3.908 --    62 C    1.326    72 N    1.222    70 C    1.179
    70   6 C    3.954 --    71 C    1.643    69 C    1.179    99 H    0.973
    71   6 C    3.957 --    70 C    1.643    73 C    1.186   100 H    0.974
    72   7 N    3.249 --    73 C    1.255    69 C    1.222    55 Cu   0.504
    73   6 C    3.898 --    74 C    1.262    72 N    1.255    71 C    1.186
    74   6 C    3.940 --    75 C    1.263    73 C    1.262   120 C    1.181
    75   6 C    3.898 --    74 C    1.263    79 N    1.255    76 C    1.186
    76   6 C    3.957 --    77 C    1.643    75 C    1.186   101 H    0.974
    77   6 C    3.954 --    76 C    1.643    78 C    1.179   102 H    0.973
    78   6 C    3.908 --    80 C    1.325    79 N    1.222    77 C    1.179
    79   7 N    3.249 --    75 C    1.255    78 C    1.222    55 Cu   0.504
    80   6 C    3.935 --    78 C    1.325    87 C    1.320    81 C    1.028
    81   6 C    3.986 --    82 C    1.393    86 C    1.393    80 C    1.028
                            84 N    0.107
    82   6 C    3.987 --    83 C    1.442    81 C    1.393   103 H    0.973
                            85 C    0.108
    83   6 C    3.972 --    82 C    1.442    84 N    1.416   104 H    0.972
                            86 C    0.108
    84   7 N    3.030 --    83 C    1.416    85 C    1.415    81 C    0.107
    85   6 C    3.972 --    86 C    1.442    84 N    1.415   105 H    0.972
                            82 C    0.108
    86   6 C    3.987 --    85 C    1.442    81 C    1.393   106 H    0.973
                            83 C    0.108
    87   6 C    3.914 --    80 C    1.320    91 N    1.238    88 C    1.172
    88   6 C    3.958 --    89 C    1.657    87 C    1.172   107 H    0.973
    89   6 C    3.955 --    88 C    1.657    90 C    1.170   108 H    0.975
    90   6 C    3.916 --    56 C    1.362    91 N    1.229    89 C    1.170
    91   7 N    3.244 --    87 C    1.238    90 C    1.229    55 Cu   0.507
    92   1 H    1.001 --    56 C    0.971
    93   1 H    0.998 --    58 C    0.975
    94   1 H    1.004 --    59 C    0.973
    95   1 H    1.004 --    64 C    0.973
    96   1 H    1.013 --    65 C    0.972
    97   1 H    1.013 --    67 C    0.972
    98   1 H    1.004 --    68 C    0.973
    99   1 H    1.004 --    70 C    0.973
   100   1 H    1.002 --    71 C    0.974
   101   1 H    1.002 --    76 C    0.974
   102   1 H    1.004 --    77 C    0.973
   103   1 H    1.004 --    82 C    0.973
   104   1 H    1.013 --    83 C    0.972
   105   1 H    1.013 --    85 C    0.972
   106   1 H    1.004 --    86 C    0.973
   107   1 H    1.004 --    88 C    0.973
   108   1 H    0.998 --    89 C    0.975
   109   6 C    3.936 --   110 C    2.485   111 C    1.301
   110   6 C    3.923 --   109 C    2.485    20 C    1.180   112 C    0.199
   111   6 C    3.933 --   112 C    2.483   109 C    1.301
   112   6 C    3.924 --   111 C    2.483   122 C    1.182   110 C    0.199
   113   6 C    3.933 --   114 C    2.475   115 C    1.309
   114   6 C    3.925 --   113 C    2.475   140 C    1.189   116 C    0.199
   115   6 C    3.933 --   116 C    2.475   113 C    1.309
   116   6 C    3.925 --   115 C    2.475   175 C    1.189   114 C    0.199
   117   6 C    3.933 --   118 C    2.481   119 C    1.303
   118   6 C    3.925 --   117 C    2.481   193 C    1.184   120 C    0.199
   119   6 C    3.936 --   120 C    2.483   117 C    1.303
   120   6 C    3.924 --   119 C    2.483    74 C    1.181   118 C    0.199
   121  29 Cu   2.164 --   145 N    0.499   127 N    0.499   157 N    0.499
                           138 N    0.498
   122   6 C    3.928 --   156 C    1.261   123 C    1.260   112 C    1.182
   123   6 C    3.899 --   122 C    1.260   127 N    1.257   124 C    1.186
   124   6 C    3.955 --   125 C    1.642   123 C    1.186   158 H    0.974
   125   6 C    3.956 --   124 C    1.642   126 C    1.180   159 H    0.973
   126   6 C    3.907 --   128 C    1.322   127 N    1.223   125 C    1.180
   127   7 N    3.241 --   123 C    1.257   126 C    1.223   121 Cu   0.499
   128   6 C    3.930 --   135 C    1.323   126 C    1.322   129 C    1.027
   129   6 C    3.986 --   130 C    1.393   134 C    1.393   128 C    1.027
                           132 N    0.107
   130   6 C    3.987 --   131 C    1.442   129 C    1.393   160 H    0.973
                           133 C    0.109
   131   6 C    3.972 --   130 C    1.442   132 N    1.416   161 H    0.972
                           134 C    0.109
   132   7 N    3.030 --   131 C    1.416   133 C    1.415   129 C    0.107
   133   6 C    3.972 --   134 C    1.442   132 N    1.415   162 H    0.972
                           130 C    0.109
   134   6 C    3.987 --   133 C    1.442   129 C    1.393   163 H    0.973
                           131 C    0.109
   135   6 C    3.907 --   128 C    1.323   138 N    1.222   136 C    1.180
   136   6 C    3.955 --   137 C    1.641   135 C    1.180   164 H    0.973
   137   6 C    3.955 --   136 C    1.641   139 C    1.187   165 H    0.974
   138   7 N    3.241 --   139 C    1.259   135 C    1.222   121 Cu   0.498
   139   6 C    3.898 --   138 N    1.259   140 C    1.257   137 C    1.187
   140   6 C    3.928 --   141 C    1.257   139 C    1.257   114 C    1.189
   141   6 C    3.898 --   145 N    1.259   140 C    1.257   142 C    1.187
   142   6 C    3.955 --   143 C    1.641   141 C    1.187   166 H    0.974
   143   6 C    3.955 --   142 C    1.641   144 C    1.180   167 H    0.973
   144   6 C    3.907 --   146 C    1.323   145 N    1.222   143 C    1.180
   145   7 N    3.241 --   141 C    1.259   144 C    1.222   121 Cu   0.499
   146   6 C    3.930 --   144 C    1.323   153 C    1.323   147 C    1.028
   147   6 C    3.986 --   152 C    1.393   148 C    1.392   146 C    1.028
                           150 N    0.107
   148   6 C    3.987 --   149 C    1.442   147 C    1.392   168 H    0.973
                           151 C    0.109
   149   6 C    3.972 --   148 C    1.442   150 N    1.415   169 H    0.972
                           152 C    0.108
   150   7 N    3.030 --   151 C    1.416   149 C    1.415   147 C    0.107
   151   6 C    3.972 --   152 C    1.442   150 N    1.416   170 H    0.972
                           148 C    0.109
   152   6 C    3.987 --   151 C    1.442   147 C    1.393   171 H    0.973
                           149 C    0.108
   153   6 C    3.907 --   146 C    1.323   157 N    1.223   154 C    1.180
   154   6 C    3.956 --   155 C    1.642   153 C    1.180   172 H    0.973
   155   6 C    3.955 --   154 C    1.642   156 C    1.186   173 H    0.974
   156   6 C    3.899 --   122 C    1.261   157 N    1.257   155 C    1.186
   157   7 N    3.241 --   156 C    1.257   153 C    1.223   121 Cu   0.499
   158   1 H    1.002 --   124 C    0.974
   159   1 H    1.004 --   125 C    0.973
   160   1 H    1.004 --   130 C    0.973
   161   1 H    1.013 --   131 C    0.972
   162   1 H    1.013 --   133 C    0.972
   163   1 H    1.004 --   134 C    0.973
   164   1 H    1.004 --   136 C    0.973
   165   1 H    1.002 --   137 C    0.974
   166   1 H    1.002 --   142 C    0.974
   167   1 H    1.004 --   143 C    0.973
   168   1 H    1.004 --   148 C    0.973
   169   1 H    1.013 --   149 C    0.972
   170   1 H    1.013 --   151 C    0.972
   171   1 H    1.004 --   152 C    0.973
   172   1 H    1.004 --   154 C    0.973
   173   1 H    1.002 --   155 C    0.974
   174  29 Cu   2.164 --   180 N    0.499   210 N    0.499   198 N    0.499
                           191 N    0.498
   175   6 C    3.928 --   176 C    1.257   209 C    1.257   116 C    1.189
   176   6 C    3.898 --   180 N    1.259   175 C    1.257   177 C    1.187
   177   6 C    3.955 --   178 C    1.641   176 C    1.187   211 H    0.974
   178   6 C    3.955 --   177 C    1.641   179 C    1.180   212 H    0.973
   179   6 C    3.907 --   181 C    1.323   180 N    1.222   178 C    1.180
   180   7 N    3.241 --   176 C    1.259   179 C    1.222   174 Cu   0.499
   181   6 C    3.930 --   179 C    1.323   188 C    1.322   182 C    1.028
   182   6 C    3.986 --   187 C    1.393   183 C    1.393   181 C    1.028
                           185 N    0.107
   183   6 C    3.987 --   184 C    1.442   182 C    1.393   213 H    0.973
                           186 C    0.108
   184   6 C    3.972 --   183 C    1.442   185 N    1.415   214 H    0.972
                           187 C    0.109
   185   7 N    3.030 --   186 C    1.416   184 C    1.415   182 C    0.107
   186   6 C    3.972 --   187 C    1.442   185 N    1.416   215 H    0.972
                           183 C    0.108
   187   6 C    3.987 --   186 C    1.442   182 C    1.393   216 H    0.973
                           184 C    0.109
   188   6 C    3.907 --   181 C    1.322   191 N    1.223   189 C    1.180
   189   6 C    3.955 --   190 C    1.641   188 C    1.180   217 H    0.973
   190   6 C    3.955 --   189 C    1.641   192 C    1.187   218 H    0.974
   191   7 N    3.241 --   192 C    1.258   188 C    1.223   174 Cu   0.498
   192   6 C    3.899 --   193 C    1.259   191 N    1.258   190 C    1.187
   193   6 C    3.928 --   194 C    1.260   192 C    1.259   118 C    1.184
   194   6 C    3.899 --   193 C    1.260   198 N    1.257   195 C    1.187
   195   6 C    3.955 --   196 C    1.641   194 C    1.187   219 H    0.974
   196   6 C    3.955 --   195 C    1.641   197 C    1.180   220 H    0.973
   197   6 C    3.907 --   199 C    1.322   198 N    1.223   196 C    1.180
   198   7 N    3.241 --   194 C    1.257   197 C    1.223   174 Cu   0.499
   199   6 C    3.930 --   206 C    1.323   197 C    1.322   200 C    1.028
   200   6 C    3.986 --   205 C    1.393   201 C    1.392   199 C    1.028
                           203 N    0.107
   201   6 C    3.987 --   202 C    1.442   200 C    1.392   221 H    0.973
                           204 C    0.109
   202   6 C    3.972 --   201 C    1.442   203 N    1.415   222 H    0.972
                           205 C    0.108
   203   7 N    3.030 --   204 C    1.416   202 C    1.415   200 C    0.107
   204   6 C    3.972 --   205 C    1.442   203 N    1.416   223 H    0.972
                           201 C    0.109
   205   6 C    3.987 --   204 C    1.442   200 C    1.393   224 H    0.973
                           202 C    0.108
   206   6 C    3.907 --   199 C    1.323   210 N    1.222   207 C    1.180
   207   6 C    3.955 --   208 C    1.641   206 C    1.180   225 H    0.973
   208   6 C    3.955 --   207 C    1.641   209 C    1.187   226 H    0.974
   209   6 C    3.898 --   210 N    1.259   175 C    1.257   208 C    1.187
   210   7 N    3.241 --   209 C    1.259   206 C    1.222   174 Cu   0.499
   211   1 H    1.002 --   177 C    0.974
   212   1 H    1.004 --   178 C    0.973
   213   1 H    1.004 --   183 C    0.973
   214   1 H    1.013 --   184 C    0.972
   215   1 H    1.013 --   186 C    0.972
   216   1 H    1.004 --   187 C    0.973
   217   1 H    1.004 --   189 C    0.973
   218   1 H    1.002 --   190 C    0.974
   219   1 H    1.002 --   195 C    0.974
   220   1 H    1.004 --   196 C    0.973
   221   1 H    1.004 --   201 C    0.973
   222   1 H    1.013 --   202 C    0.972
   223   1 H    1.013 --   204 C    0.972
   224   1 H    1.004 --   205 C    0.973
   225   1 H    1.004 --   207 C    0.973
   226   1 H    1.002 --   208 C    0.974
 ---------------------------------------------------------------------------

           -------------------------------------------------
          | TOTAL ENERGY             -408.855914952784 Eh   |
          | GRADIENT NORM               0.000453858017 Eh/α |
          | HOMO-LUMO GAP               0.000190459286 eV   |
           -------------------------------------------------

 * finished run on 2022/07/30 at 04:50:03.706
