   * xtb version 6.5.1 (b24c23e) compiled by 'conda@728c89f4b128' on 2022-07-12
          program call               : xtb Co_PhCHO_C4_3.xyz --gfn 1 --opt -T 48

   ID    Z sym.   atoms
    1   27 Co     1, 61, 129
    2    6 C      2-6, 8-13, 15-19, 21-26, 28-33, 35-40, 62-66, 68-73, 75-79,
                  81-86, 88-93, 95-100, 121-128, 130-134, 136-141, 143-147,
                  149-154, 156-161, 163-168
    3    7 N      7, 20, 27, 41, 67, 80, 87, 101, 135, 148, 155, 169
    4    8 O      14, 34, 74, 94, 142, 162
    5    1 H      42-60, 102-120, 170-187
########################################################################
[WARNING] Please study the warnings concerning your input carefully
-1- prog_main_parseArguments: Unknown option '-T' provided
########################################################################

          :  Hamiltonian                  GFN1-xTB          :
 * total energy  :  -337.9467668 Eh     change       -0.2379807E-08 Eh
 * total energy  :  -338.9520634 Eh     change       -0.1005297E+01 Eh
 * total energy  :  -339.1626045 Eh     change       -0.2105411E+00 Eh
 * total energy  :  -339.2788144 Eh     change       -0.1162099E+00 Eh
 * total energy  :  -339.3416869 Eh     change       -0.6287255E-01 Eh
 * total energy  :  -339.3733233 Eh     change       -0.3163634E-01 Eh
 * total energy  :  -339.3925287 Eh     change       -0.1920545E-01 Eh
 * total energy  :  -339.4012420 Eh     change       -0.8713212E-02 Eh
 * total energy  :  -339.4099265 Eh     change       -0.8684508E-02 Eh
 * total energy  :  -339.4152815 Eh     change       -0.5355054E-02 Eh
 * total energy  :  -339.4330912 Eh     change       -0.1397499E-05 Eh
 * total energy  :  -339.4330990 Eh     change       -0.7737557E-05 Eh
 * total energy  :  -339.4331046 Eh     change       -0.5625928E-05 Eh
 * total energy  :  -339.4331111 Eh     change       -0.6540731E-05 Eh
 * total energy  :  -339.4330996 Eh     change        0.1147177E-04 Eh
 * total energy  :  -339.4331132 Eh     change       -0.1358382E-04 Eh
 * total energy  :  -339.4331012 Eh     change        0.1202631E-04 Eh
 * total energy  :  -339.4331160 Eh     change       -0.1477323E-04 Eh
 * total energy  :  -339.4331177 Eh     change       -0.1745527E-05 Eh
   *** GEOMETRY OPTIMIZATION CONVERGED AFTER 72 ITERATIONS ***

 final structure:
================
187
 xtb: 6.5.1 (b24c23e)
Co          32.09363461030576        0.02078384449657       -0.09058271770929
C           28.72804488691539        0.08496509078329       -0.31078152420111
C           29.41198013285828        1.27922488314520       -0.38073248981573
C           28.77218109104440        2.55182829259731       -0.52295093542868
C           29.72447620743996        3.49005992107866       -0.31227087576224
C           30.94983153296642        2.78907670760593       -0.06102695321709
N           30.75562923293352        1.43468740852574       -0.14688722869554
C           32.12460813203656        3.39784439404489        0.36155751423983
C           32.13390554011711        4.86199338728946        0.58878145865311
C           32.31823003769421        5.37232566964618        1.87666026922138
C           32.32256752437992        6.73738205041914        2.09047116053472
C           32.14881222952533        7.62157164740858        1.02065842144561
C           32.15913188479209        9.07413953572912        1.27482274013779
O           32.31147658467602        9.56108736336960        2.36561667506526
C           31.96956644998228        7.11146602417055       -0.26726286372983
C           31.96002609837315        5.74421000762750       -0.48026818157763
C           33.29469208146956        2.68239718816316        0.56123104315465
C           34.54551443240096        3.28265781117417        0.91817844497065
C           35.49366211056064        2.32698708099150        0.77060618230639
N           33.47271130134973        1.35309880150616        0.24892949310693
C           34.81979441222435        1.14554968269748        0.33296045602683
C           35.48533011544672       -0.02105827262913       -0.05389888351060
C           34.79524261655631       -1.18461893414514       -0.40203891147189
C           35.44376533607905       -2.39839189219384       -0.78610053014284
C           34.48111289879274       -3.34949503593478       -0.84818064008118
C           33.24717269678533       -2.71114489848724       -0.50074729706162
N           33.44575300972517       -1.36702084700633       -0.28604582209222
C           32.04392961041896       -3.38084220099110       -0.33240800585113
C           32.02628808371226       -4.85651272369046       -0.43303856179945
C           31.23634768649697       -5.48951043555359       -1.39706237753496
C           31.22320789445659       -6.86925610490511       -1.49675140535640
C           31.99669293142685       -7.64471491809713       -0.62977876775405
C           31.99733154427862       -9.11706678163959       -0.71291524096327
O           32.64557912897696       -9.82743881754551        0.01179179375723
C           32.78651346017909       -7.01182004828296        0.33576074294289
C           32.80389063854529       -5.63371430481505        0.43099950190939
C           30.85373315235783       -2.70302537881990       -0.10138335873210
C           29.58368317130467       -3.34338886784429        0.08123181075301
C           28.64679121989415       -2.36656101017038        0.05798631675516
C           29.34735448180986       -1.13028315080805       -0.11201982961171
N           30.70270881409207       -1.34080239838788       -0.14787926795504
H           27.64744704804180        0.10554921060806       -0.38838707811447
H           27.72274356052008        2.68808692354790       -0.72993590894791
H           29.61621200723305        4.56243945754600       -0.30736046413218
H           32.44311276800975        4.68824088182101        2.70833369572197
H           32.45881180065160        7.14297521213290        3.08724126403345
H           32.01381578305566        9.69692467261902        0.36647056132588
H           31.83897521066218        7.79086159752865       -1.10329098322158
H           31.83315196361745        5.35070705694327       -1.48246853201645
H           34.67330911212515        4.31103951687437        1.21415065358573
H           36.55741252469758        2.40182877094733        0.92876376335188
H           36.50169532755578       -2.49569853988398       -0.96909534643195
H           34.58501656096126       -4.39012505724603       -1.10866419486334
H           30.64622097390965       -4.88995307818600       -2.08098095139468
H           30.61167139035278       -7.35190589137775       -2.25216808093220
H           31.34428517427908       -9.52872936908127       -1.51173850468875
H           33.38186769775542       -7.62230086382421        1.00619008979839
H           33.40813436509066       -5.14635199316475        1.18777582046185
H           29.44109989598873       -4.40459433453009        0.20513239326521
H           27.57578933560334       -2.45449656191412        0.14722986543441
Co          58.86218871202920       -0.02721228642021       -0.13820365332622
C           62.22785202032317       -0.06001909266274       -0.40674858019221
C           61.54310114012034       -1.23635173303478       -0.61925624082048
C           62.18557927135194       -2.47929697940701       -0.92145573570653
C           61.23576197377201       -3.43858816857164       -0.82960541030824
C           60.00819546301263       -2.77703042387913       -0.49578876476308
N           60.20019487506127       -1.42246213486718       -0.40376571085572
C           58.82762226669834       -3.43783380145424       -0.18372524957152
C           58.81585912671928       -4.91941167656562       -0.16341808469157
C           58.59757141623563       -5.60356366242524        1.03555806104680
C           58.59007880673675       -6.98504666052800        1.05759785351328
C           58.79506559836610       -7.71245802930529       -0.11944275914988
C           58.78087400674049       -9.18608661110112       -0.07015859565513
O           58.59748961943543       -9.82004685476881        0.93717598043543
C           59.00807618088830       -7.02866556190276       -1.31869506139724
C           59.02004497302499       -5.64511738446494       -1.33952301828480
C           57.65081794046376       -2.75711529284737        0.08566767024270
C           56.39319211438658       -3.40526075097598        0.31066413948787
C           55.44619009804985       -2.43780182839895        0.29042193396918
N           57.47731034978174       -1.39542812093685       -0.02110275016853
C           56.12763334629160       -1.20214313238447        0.06611595738167
C           55.46744035421413        0.01572897074265       -0.11023426299917
C           56.15890600215143        1.22190210893430       -0.23189582228588
C           55.50906231968911        2.48554772045040       -0.38197820536796
C           56.47329826690459        3.43139292683544       -0.28333421463706
C           57.71000582606129        2.73994435203380       -0.07527865231469
N           57.51055162548875        1.37923366745051       -0.09784348438323
C           58.91998469381328        3.37245516768768        0.16949600375681
C           58.94111097167557        4.84566442118818        0.30673413391432
C           59.69183789459540        5.62535800649210       -0.57775692506399
C           59.70706287048143        7.00344238828256       -0.45765441471262
C           58.97525031512158        7.62949189064655        0.55414703917610
C           58.97703888566799        9.09643473342669        0.70473811338559
O           58.36647256598754        9.68160810891820        1.56191582834534
C           58.22516269514676        6.84947929169353        1.44047019161132
C           58.20517335814600        5.47364170854689        1.31610049356808
C           60.11334332386986        2.66784712964181        0.25163484111749
C           61.38996984163877        3.27566712657098        0.49109507612570
C           62.32278896612137        2.31491772093966        0.29480760409292
C           61.61381964929820        1.11644753186861       -0.03542996139280
N           60.25859156319399        1.32833442345190       -0.00567815451362
H           63.30712059343062       -0.06889734667064       -0.50284147757247
H           63.23530858760970       -2.58581954400449       -1.14382643891771
H           61.34665605261225       -4.50282544618647       -0.95918406138939
H           58.44827082297180       -5.04136871789997        1.95038559067354
H           58.42730481416956       -7.52487061787963        1.98426375597400
H           58.95286570001953       -9.67665346174901       -1.05196309830229
H           59.16273154021626       -7.58560906016505       -2.23711082440423
H           59.17236465534737       -5.11664781950968       -2.27379422785881
H           56.26132304099006       -4.46736606274313        0.43723621221901
H           54.37904384167992       -2.53553498897658        0.40785425683242
H           54.44925867354798        2.61455973375175       -0.53136030276353
H           56.36928704893467        4.50203492430416       -0.34983963612856
H           60.24937812198214        5.14316759098310       -1.37281588944926
H           60.28758235110905        7.60137673531227       -1.15268789971904
H           59.59721790820188        9.63076111536769       -0.04629675580617
H           57.66199052718545        7.34444098694341        2.22434101607423
H           57.63097381834958        4.87080531451700        2.01051633375246
H           61.53886076925224        4.30666314588642        0.76803135399765
H           63.39615417806537        2.38948071819155        0.36606883230155
C           38.11067689751466       -0.03232580076063       -0.07458854961174
C           36.88793030714027       -0.03038091946678       -0.06642397948707
C           39.45866325575695       -0.03072618526945       -0.07748595156478
C           40.68162011824762       -0.03095977932742       -0.07097353007769
C           51.49138280238045        0.03351115651555       -0.13188595158343
C           50.26916195614126        0.02969930306055       -0.11996319857031
C           52.84082592257646        0.03233119363299       -0.13452293949705
C           54.06287113078358        0.02968681295862       -0.12836828154235
Co          45.47464030356953       -0.00530874965414       -0.07590198201622
C           42.08293802077992       -0.02723674644526       -0.05718112689535
C           42.76034723122788        1.19438332893634        0.01171829476682
C           42.10716769931892        2.46411957493059        0.03411538280960
C           43.05653707736655        3.38326639682321        0.33800929239172
C           44.28426162538220        2.66697230299084        0.50570292728030
N           44.10039253169079        1.33118696614640        0.23864868094622
C           45.45929729975630        3.22312989489730        0.99456924807495
C           45.44993201916807        4.62933761998424        1.45139163851515
C           46.30664774900651        5.56922906021024        0.86986511360093
C           46.29368293576835        6.88280038209597        1.29731719094129
C           45.42904663895193        7.28573247428397        2.32024273560386
C           45.43871974358100        8.69347512179101        2.76131810301596
O           46.15252284186169        9.53755402306770        2.28431262946406
C           44.57386737815886        6.34756745697967        2.90293998365281
C           44.58188784886134        5.03368259661527        2.46968569911211
C           46.64374032011077        2.50109092262973        1.05511162699946
C           47.87582238138613        3.01054484733918        1.57705282110358
C           48.83754354175897        2.11259258784935        1.25180211880136
N           46.83704981099580        1.25976287352956        0.49516753029995
C           48.18637671136250        1.05189599551596        0.55103288140356
C           48.86626525294277        0.01693562433347       -0.09708669135699
C           48.18521935108174       -1.03960714231765       -0.70842517052841
C           48.83270486440001       -2.10303107728378       -1.40786295494558
C           47.88277922818272       -3.03762267179779       -1.65804122618951
C           46.66087029811750       -2.54170538364853       -1.10169610238562
N           46.84711568096557       -1.28449474544549       -0.57912527288249
C           45.49022719039900       -3.28150726922704       -0.98949158409033
C           45.50043533016013       -4.70215471822379       -1.39911707091099
C           46.38353707795407       -5.60318296907257       -0.79722764907014
C           46.39535670180025       -6.93313452848817       -1.17812805904954
C           45.52885862854407       -7.38710305934954       -2.17522418172579
C           45.52523982165818       -8.79840521535433       -2.60443746496774
O           44.80346058685533       -9.23280415335900       -3.46468612074867
C           44.64791520352544       -6.48497257608793       -2.78060987759667
C           44.63116911793377       -5.15859208331016       -2.39489100761626
C           44.31105432667257       -2.72244011276611       -0.51656289629717
C           43.08474168209712       -3.44189336500892       -0.34795187290796
C           42.12280506869104       -2.51944596074100       -0.10096085585348
C           42.76849230436549       -1.24541872849239       -0.10079527021080
N           44.11508532608641       -1.38045389160992       -0.28469750655212
H           41.05579819717517        2.61554901760072       -0.14995521827697
H           42.94580092796044        4.45051585309306        0.43986367440685
H           46.96842100095478        5.26299187482177        0.06763215892507
H           46.95080670538981        7.61937437606240        0.84758126816808
H           44.72382278671785        8.91964268975183        3.58079099730329
H           43.90199522212217        6.65115896037371        3.69912728388481
H           43.92591842253981        4.30477670673854        2.93212697587756
H           47.98165366561172        3.93786592415635        2.11587406270626
H           49.89532047668700        2.15308833522699        1.45566504932103
H           49.88078518299088       -2.12185964016434       -1.65955007029146
H           47.98973864377337       -3.97867981508621       -2.17244365848878
H           47.04899321237384       -5.25587137279276       -0.01494215311672
H           47.07960706241666       -7.62707616865788       -0.70090816630783
H           46.25221754098203       -9.44136431253463       -2.06420460429176
H           43.98180673488284       -6.84569434838394       -3.55700266499894
H           43.95701360264810       -4.45894609937734       -2.87584214645480
H           42.98250041326130       -4.51250296305073       -0.41741584173064
H           41.06812121840123       -2.67143649236089        0.06233211602203

          :  Hamiltonian                  GFN1-xTB          :
         :: total energy            -339.433117721536 Eh    ::
         :: gradient norm              0.000695775743 Eh/a0 ::
         :: HOMO-LUMO gap              0.007583842598 eV    ::
         :: SCC energy              -344.710052930331 Eh    ::
         :: repulsion energy           5.445987380252 Eh    ::

    * Orbital Energies and Occupations

         #    Occupation            Energy/Eh            Energy/eV
      -------------------------------------------------------------
         1        2.0000           -0.7950024             -21.6331
       ...           ...                  ...                  ...
       298        2.0000           -0.4092971             -11.1375
       299        2.0000           -0.4092758             -11.1370
       300        2.0000           -0.4088990             -11.1267
       301        1.9998           -0.4060646             -11.0496
       302        1.9998           -0.4059640             -11.0468
       303        1.9998           -0.4057334             -11.0406
       304        1.9998           -0.4057033             -11.0397
       305        1.9998           -0.4056183             -11.0374
       306        1.9997           -0.4055779             -11.0363
       307        1.9995           -0.4050087             -11.0208
       308        1.7763           -0.3989982             -10.8573
       309        1.1302           -0.3971661             -10.8074
       310        1.1142           -0.3971322             -10.8065 (HOMO)
       311        0.9810           -0.3968535             -10.7989 (LUMO)
       312                         -0.3569068              -9.7119
       313                         -0.3476473              -9.4600
       314                         -0.3465529              -9.4302
       315                         -0.3449408              -9.3863
       316                         -0.3442327              -9.3670
       317                         -0.3394480              -9.2368
       318                         -0.3318010              -9.0288
       319                         -0.3296147              -8.9693
       320                         -0.3291144              -8.9557
       321                         -0.3252444              -8.8503
       ...                                ...                  ...
       651                          1.5005841              40.8330
      -------------------------------------------------------------
                  HL-Gap            0.0002787 Eh            0.0076 eV

Wiberg/Mayer (AO) data.
largest (>0.10) Wiberg bond orders for each atom

     #   Z sym  total        # sym  WBO       # sym  WBO       # sym  WBO
 ---------------------------------------------------------------------------
     1  27 Co   3.022 --    41 N    0.636     7 N    0.635    20 N    0.632
                            27 N    0.631
     2   6 C    3.927 --     3 C    1.367    40 C    1.363    42 H    0.970
     3   6 C    3.923 --     2 C    1.367     7 N    1.200     4 C    1.173
     4   6 C    3.959 --     5 C    1.651     3 C    1.173    43 H    0.975
     5   6 C    3.963 --     4 C    1.651     6 C    1.176    44 H    0.972
     6   6 C    3.919 --     8 C    1.316     7 N    1.215     5 C    1.176
     7   7 N    3.346 --     6 C    1.215     3 C    1.200     1 Co   0.635
     8   6 C    3.929 --    17 C    1.336     6 C    1.316     9 C    1.025
     9   6 C    3.986 --    16 C    1.386    10 C    1.383     8 C    1.025
    10   6 C    3.988 --    11 C    1.470     9 C    1.383    45 H    0.972
                            15 C    0.101
    11   6 C    3.988 --    10 C    1.470    12 C    1.371    46 H    0.968
                            16 C    0.101
    12   6 C    3.985 --    15 C    1.380    11 C    1.371    13 C    1.048
    13   6 C    3.864 --    14 O    1.809    12 C    1.048    47 H    0.942
    14   8 O    2.005 --    13 C    1.809
    15   6 C    3.993 --    16 C    1.464    12 C    1.380    48 H    0.971
                            10 C    0.101
    16   6 C    3.988 --    15 C    1.464     9 C    1.386    49 H    0.972
                            11 C    0.101
    17   6 C    3.916 --     8 C    1.336    20 N    1.191    18 C    1.179
    18   6 C    3.957 --    19 C    1.640    17 C    1.179    50 H    0.973
    19   6 C    3.962 --    18 C    1.640    21 C    1.188    51 H    0.973
    20   7 N    3.346 --    21 C    1.235    17 C    1.191     1 Co   0.632
    21   6 C    3.903 --    22 C    1.256    20 N    1.235    19 C    1.188
    22   6 C    3.931 --    23 C    1.260    21 C    1.256   122 C    1.192
    23   6 C    3.903 --    22 C    1.260    27 N    1.230    24 C    1.189
    24   6 C    3.961 --    25 C    1.638    23 C    1.189    52 H    0.973
    25   6 C    3.958 --    24 C    1.638    26 C    1.181    53 H    0.973
    26   6 C    3.916 --    28 C    1.328    27 N    1.196    25 C    1.181
    27   7 N    3.346 --    23 C    1.230    26 C    1.196     1 Co   0.631
    28   6 C    3.930 --    26 C    1.328    37 C    1.316    29 C    1.035
    29   6 C    3.986 --    30 C    1.382    36 C    1.380    28 C    1.035
    30   6 C    3.987 --    31 C    1.465    29 C    1.382    54 H    0.971
                            35 C    0.101
    31   6 C    3.993 --    30 C    1.465    32 C    1.379    55 H    0.971
    32   6 C    3.983 --    31 C    1.379    35 C    1.370    33 C    1.048
    33   6 C    3.864 --    34 O    1.809    32 C    1.048    56 H    0.942
    34   8 O    2.005 --    33 C    1.809
    35   6 C    3.988 --    36 C    1.471    32 C    1.370    57 H    0.968
                            30 C    0.101
    36   6 C    3.986 --    35 C    1.471    29 C    1.380    58 H    0.972
    37   6 C    3.920 --    28 C    1.316    41 N    1.213    38 C    1.175
    38   6 C    3.963 --    39 C    1.649    37 C    1.175    59 H    0.973
    39   6 C    3.958 --    38 C    1.649    40 C    1.174    60 H    0.975
    40   6 C    3.923 --     2 C    1.363    41 N    1.202    39 C    1.174
    41   7 N    3.345 --    37 C    1.213    40 C    1.202     1 Co   0.636
    42   1 H    1.000 --     2 C    0.970
    43   1 H    0.997 --     4 C    0.975
    44   1 H    1.004 --     5 C    0.972
    45   1 H    1.003 --    10 C    0.972
    46   1 H    1.005 --    11 C    0.968
    47   1 H    1.010 --    13 C    0.942
    48   1 H    1.000 --    15 C    0.971
    49   1 H    1.003 --    16 C    0.972
    50   1 H    1.003 --    18 C    0.973
    51   1 H    1.001 --    19 C    0.973
    52   1 H    1.001 --    24 C    0.973
    53   1 H    1.003 --    25 C    0.973
    54   1 H    1.004 --    30 C    0.971
    55   1 H    1.000 --    31 C    0.971
    56   1 H    1.010 --    33 C    0.942
    57   1 H    1.005 --    35 C    0.968
    58   1 H    1.004 --    36 C    0.972
    59   1 H    1.003 --    38 C    0.973
    60   1 H    0.997 --    39 C    0.975
    61  27 Co   3.017 --   101 N    0.637    67 N    0.636    80 N    0.632
                            87 N    0.632
    62   6 C    3.930 --    63 C    1.368   100 C    1.363   102 H    0.970
    63   6 C    3.923 --    62 C    1.368    67 N    1.200    64 C    1.172
    64   6 C    3.960 --    65 C    1.651    63 C    1.172   103 H    0.975
    65   6 C    3.963 --    64 C    1.651    66 C    1.176   104 H    0.972
    66   6 C    3.919 --    68 C    1.317    67 N    1.215    65 C    1.176
    67   7 N    3.347 --    66 C    1.215    63 C    1.200    61 Co   0.636
    68   6 C    3.932 --    77 C    1.335    66 C    1.317    69 C    1.025
    69   6 C    3.986 --    76 C    1.386    70 C    1.383    68 C    1.025
    70   6 C    3.988 --    71 C    1.470    69 C    1.383   105 H    0.972
                            75 C    0.100
    71   6 C    3.988 --    70 C    1.470    72 C    1.371   106 H    0.968
                            76 C    0.101
    72   6 C    3.985 --    75 C    1.379    71 C    1.371    73 C    1.049
    73   6 C    3.864 --    74 O    1.809    72 C    1.049   107 H    0.942
    74   8 O    2.005 --    73 C    1.809
    75   6 C    3.993 --    76 C    1.464    72 C    1.379   108 H    0.971
                            70 C    0.100
    76   6 C    3.988 --    75 C    1.464    69 C    1.386   109 H    0.972
                            71 C    0.101
    77   6 C    3.916 --    68 C    1.335    80 N    1.192    78 C    1.178
    78   6 C    3.958 --    79 C    1.641    77 C    1.178   110 H    0.973
    79   6 C    3.962 --    78 C    1.641    81 C    1.188   111 H    0.973
    80   7 N    3.349 --    81 C    1.232    77 C    1.192    61 Co   0.632
    81   6 C    3.904 --    82 C    1.261    80 N    1.232    79 C    1.188
    82   6 C    3.935 --    83 C    1.265    81 C    1.261   128 C    1.184
    83   6 C    3.904 --    82 C    1.265    87 N    1.227    84 C    1.188
    84   6 C    3.961 --    85 C    1.639    83 C    1.188   112 H    0.973
    85   6 C    3.959 --    84 C    1.639    86 C    1.181   113 H    0.973
    86   6 C    3.916 --    88 C    1.328    87 N    1.198    85 C    1.181
    87   7 N    3.348 --    83 C    1.227    86 C    1.198    61 Co   0.632
    88   6 C    3.932 --    86 C    1.328    97 C    1.319    89 C    1.033
    89   6 C    3.986 --    90 C    1.382    96 C    1.381    88 C    1.033
    90   6 C    3.987 --    91 C    1.465    89 C    1.382   114 H    0.971
                            95 C    0.101
    91   6 C    3.993 --    90 C    1.465    92 C    1.379   115 H    0.971
    92   6 C    3.983 --    91 C    1.379    95 C    1.370    93 C    1.048
    93   6 C    3.864 --    94 O    1.810    92 C    1.048   116 H    0.942
    94   8 O    2.005 --    93 C    1.810
    95   6 C    3.988 --    96 C    1.471    92 C    1.370   117 H    0.968
                            90 C    0.101
    96   6 C    3.987 --    95 C    1.471    89 C    1.381   118 H    0.972
    97   6 C    3.920 --    88 C    1.319   101 N    1.212    98 C    1.175
    98   6 C    3.962 --    99 C    1.649    97 C    1.175   119 H    0.973
    99   6 C    3.960 --    98 C    1.649   100 C    1.174   120 H    0.975
   100   6 C    3.923 --    62 C    1.363   101 N    1.202    99 C    1.174
   101   7 N    3.347 --    97 C    1.212   100 C    1.202    61 Co   0.637
   102   1 H    1.000 --    62 C    0.970
   103   1 H    0.997 --    64 C    0.975
   104   1 H    1.004 --    65 C    0.972
   105   1 H    1.003 --    70 C    0.972
   106   1 H    1.005 --    71 C    0.968
   107   1 H    1.010 --    73 C    0.942
   108   1 H    1.000 --    75 C    0.971
   109   1 H    1.003 --    76 C    0.972
   110   1 H    1.003 --    78 C    0.973
   111   1 H    1.001 --    79 C    0.973
   112   1 H    1.001 --    84 C    0.973
   113   1 H    1.003 --    85 C    0.973
   114   1 H    1.004 --    90 C    0.971
   115   1 H    1.000 --    91 C    0.971
   116   1 H    1.010 --    93 C    0.942
   117   1 H    1.005 --    95 C    0.968
   118   1 H    1.004 --    96 C    0.972
   119   1 H    1.003 --    98 C    0.973
   120   1 H    0.997 --    99 C    0.975
   121   6 C    3.930 --   122 C    2.464   123 C    1.317
   122   6 C    3.916 --   121 C    2.464    22 C    1.192   124 C    0.197
   123   6 C    3.924 --   124 C    2.461   121 C    1.317
   124   6 C    3.920 --   123 C    2.461   130 C    1.198   122 C    0.197
   125   6 C    3.924 --   126 C    2.470   127 C    1.309
   126   6 C    3.920 --   125 C    2.470   150 C    1.190   128 C    0.197
   127   6 C    3.931 --   128 C    2.473   125 C    1.309
   128   6 C    3.914 --   127 C    2.473    82 C    1.184   126 C    0.197
   129  27 Co   3.045 --   148 N    0.632   169 N    0.631   155 N    0.626
                           135 N    0.626
   130   6 C    3.920 --   168 C    1.254   131 C    1.254   124 C    1.198
   131   6 C    3.904 --   130 C    1.254   135 N    1.232   132 C    1.193
   132   6 C    3.960 --   133 C    1.632   131 C    1.193   170 H    0.974
   133   6 C    3.959 --   132 C    1.632   134 C    1.185   171 H    0.973
   134   6 C    3.914 --   136 C    1.319   135 N    1.199   133 C    1.185
   135   7 N    3.339 --   131 C    1.232   134 C    1.199   129 Co   0.626
   136   6 C    3.925 --   145 C    1.322   134 C    1.319   137 C    1.037
   137   6 C    3.986 --   144 C    1.382   138 C    1.379   136 C    1.037
   138   6 C    3.986 --   139 C    1.471   137 C    1.379   172 H    0.971
   139   6 C    3.988 --   138 C    1.471   140 C    1.371   173 H    0.967
                           144 C    0.101
   140   6 C    3.983 --   143 C    1.379   139 C    1.371   141 C    1.047
   141   6 C    3.864 --   142 O    1.811   140 C    1.047   174 H    0.942
   142   8 O    2.006 --   141 C    1.811
   143   6 C    3.993 --   144 C    1.465   140 C    1.379   175 H    0.971
   144   6 C    3.985 --   143 C    1.465   137 C    1.382   176 H    0.971
                           139 C    0.101
   145   6 C    3.914 --   136 C    1.322   148 N    1.197   146 C    1.183
   146   6 C    3.960 --   147 C    1.635   145 C    1.183   177 H    0.973
   147   6 C    3.959 --   146 C    1.635   149 C    1.191   178 H    0.973
   148   7 N    3.339 --   149 C    1.231   145 C    1.197   129 Co   0.632
   149   6 C    3.905 --   150 C    1.258   148 N    1.231   147 C    1.191
   150   6 C    3.921 --   149 C    1.258   151 C    1.257   126 C    1.190
   151   6 C    3.905 --   150 C    1.257   155 N    1.230   152 C    1.193
   152   6 C    3.960 --   153 C    1.632   151 C    1.193   179 H    0.973
   153   6 C    3.960 --   152 C    1.632   154 C    1.185   180 H    0.973
   154   6 C    3.914 --   156 C    1.316   155 N    1.200   153 C    1.185
   155   7 N    3.339 --   151 C    1.230   154 C    1.200   129 Co   0.626
   156   6 C    3.925 --   165 C    1.325   154 C    1.316   157 C    1.037
   157   6 C    3.986 --   158 C    1.382   164 C    1.379   156 C    1.037
   158   6 C    3.985 --   159 C    1.465   157 C    1.382   181 H    0.971
                           163 C    0.101
   159   6 C    3.993 --   158 C    1.465   160 C    1.379   182 H    0.971
   160   6 C    3.983 --   159 C    1.379   163 C    1.371   161 C    1.047
   161   6 C    3.864 --   162 O    1.811   160 C    1.047   183 H    0.942
   162   8 O    2.005 --   161 C    1.811
   163   6 C    3.988 --   164 C    1.471   160 C    1.371   184 H    0.967
                           158 C    0.101
   164   6 C    3.986 --   163 C    1.471   157 C    1.379   185 H    0.971
   165   6 C    3.914 --   156 C    1.325   169 N    1.195   166 C    1.183
   166   6 C    3.959 --   167 C    1.634   165 C    1.183   186 H    0.973
   167   6 C    3.959 --   166 C    1.634   168 C    1.191   187 H    0.973
   168   6 C    3.904 --   130 C    1.254   169 N    1.234   167 C    1.191
   169   7 N    3.338 --   168 C    1.234   165 C    1.195   129 Co   0.631
   170   1 H    1.001 --   132 C    0.974
   171   1 H    1.003 --   133 C    0.973
   172   1 H    1.004 --   138 C    0.971
   173   1 H    1.004 --   139 C    0.967
   174   1 H    1.010 --   141 C    0.942
   175   1 H    1.000 --   143 C    0.971
   176   1 H    1.004 --   144 C    0.971
   177   1 H    1.003 --   146 C    0.973
   178   1 H    1.001 --   147 C    0.973
   179   1 H    1.001 --   152 C    0.973
   180   1 H    1.003 --   153 C    0.973
   181   1 H    1.004 --   158 C    0.971
   182   1 H    1.000 --   159 C    0.971
   183   1 H    1.010 --   161 C    0.942
   184   1 H    1.005 --   163 C    0.967
   185   1 H    1.004 --   164 C    0.971
   186   1 H    1.003 --   166 C    0.973
   187   1 H    1.001 --   167 C    0.973
 ---------------------------------------------------------------------------

           -------------------------------------------------
          | TOTAL ENERGY             -339.433117721536 Eh   |
          | GRADIENT NORM               0.000695775743 Eh/α |
          | HOMO-LUMO GAP               0.007583842598 eV   |
           -------------------------------------------------

 * finished run on 2022/07/29 at 22:33:52.574
