   * xtb version 6.5.1 (b24c23e) compiled by 'conda@728c89f4b128' on 2022-07-12
          program call               : xtb Cu_Py_C6_3.xyz --gfn 1 --opt -T 48

   ID    Z sym.   atoms
    1   29 Cu     1, 55, 121
    2    6 C      2-6, 8-11, 13-17, 19-24, 26-29, 31-36, 56-60, 62-65, 67-71,
                  73-78, 80-83, 85-90, 109-120, 122-126, 128-131, 133-137,
                  139-144, 146-149, 151-156
    3    7 N      7, 12, 18, 25, 30, 37, 61, 66, 72, 79, 84, 91, 127, 132,
                  138, 145, 150, 157
    4    1 H      38-54, 92-108, 158-173

          :  Hamiltonian                  GFN1-xTB          :
 * total energy  :  -312.2591966 Eh     change       -0.5680363E-09 Eh
 * total energy  :  -312.6443626 Eh     change       -0.3851661E+00 Eh
 * total energy  :  -312.7654984 Eh     change       -0.1211358E+00 Eh
 * total energy  :  -312.8486410 Eh     change       -0.8314259E-01 Eh
 * total energy  :  -312.9193762 Eh     change       -0.7073511E-01 Eh
 * total energy  :  -312.9892595 Eh     change       -0.6988333E-01 Eh
 * total energy  :  -313.0294189 Eh     change       -0.4015941E-01 Eh
 * total energy  :  -313.0549492 Eh     change       -0.2553034E-01 Eh
 * total energy  :  -313.0742996 Eh     change       -0.1935031E-01 Eh
 * total energy  :  -313.0862559 Eh     change       -0.1195639E-01 Eh
 * total energy  :  -313.1657709 Eh     change       -0.8182408E-04 Eh
 * total energy  :  -313.1657536 Eh     change        0.1727662E-04 Eh
 * total energy  :  -313.1658031 Eh     change       -0.4947590E-04 Eh
 * total energy  :  -313.1657918 Eh     change        0.1128087E-04 Eh
 * total energy  :  -313.1658199 Eh     change       -0.2810572E-04 Eh
 * total energy  :  -313.1658330 Eh     change       -0.1310654E-04 Eh
 * total energy  :  -313.1658410 Eh     change       -0.8004522E-05 Eh
 * total energy  :  -313.1658488 Eh     change       -0.7716462E-05 Eh
 * total energy  :  -313.1658530 Eh     change       -0.4236737E-05 Eh
   *** GEOMETRY OPTIMIZATION CONVERGED AFTER 57 ITERATIONS ***

 final structure:
================
173
 xtb: 6.5.1 (b24c23e)
Cu          22.14374881839686       -0.02047336873824       -0.01016943128385
C           18.73744958859568       -0.05430345935578       -0.03828241258656
C           19.37263474936022       -1.28063681292450        0.08585115385346
C           18.69752929181303       -2.53876945225957        0.22996437676062
C           19.65626545956207       -3.49057263849337        0.34538649663907
C           20.92699286829544       -2.82244619220174        0.26494547760499
N           20.72346396020590       -1.48131440755079        0.11205198351856
C           22.17136657165970       -3.44822738191898        0.36790417259998
C           22.18172547608001       -4.92276237092563        0.52918489414822
C           22.69022559312218       -5.52304232318913        1.68023756520618
C           22.67279504743496       -6.90493228264505        1.78568840478974
N           22.19511194480387       -7.69828890552359        0.83224989410127
C           21.71125239622848       -7.13412227130206       -0.26966737834251
C           21.68052016951061       -5.76231314405259       -0.46481824937048
C           23.40463612867914       -2.79546240746466        0.33000180456729
C           24.68206508819464       -3.44724359989064        0.39575958780965
C           25.62817781331484       -2.47938794445303        0.29799926346857
N           23.59315093994991       -1.44635833172974        0.18515766669661
C           24.93696551243399       -1.23204102142219        0.16461045808895
C           25.57278258960608        0.01228028740671        0.01094929594819
C           24.91480358190886        1.24474696377276       -0.14409189832132
C           25.58331673331480        2.49839988429613       -0.32470912179247
C           24.62006231775463        3.44820565195268       -0.43223205895035
C           23.35492781895077        2.78052817169218       -0.31094384861778
N           23.56748262410154        1.43728319493458       -0.14688259983442
C           22.10988685830003        3.40871789876851       -0.37719723486735
C           22.09478351459953        4.88403950015431       -0.52678876034222
C           21.53263792552131        5.49394181194119       -1.64763104809706
C           21.54071192864599        6.87677875742998       -1.74013777773967
N           22.05899329383772        7.66266166420075       -0.80183302096271
C           22.59577994879839        7.08948375285793        0.27051139983675
C           22.63941569166800        5.71602198731584        0.45072558351632
C           20.87643282310557        2.75644504112360       -0.31162585596199
C           19.59401352649616        3.40634396584587       -0.33762721848317
C           18.65275404325635        2.43463095943140       -0.24671006640883
C           19.35045850141913        1.18405522101659       -0.15440382281685
N           20.69733892404381        1.40866831822289       -0.18939693802512
H           17.65238202966201       -0.06365316101444       -0.03424927302460
H           17.62614194942242       -2.66242643742597        0.24595383427963
H           19.52251506807990       -4.55120237963151        0.48497838479350
H           23.07948401939904       -4.91532879330971        2.48843934097734
H           23.05862979794763       -7.39528506600890        2.67470709492766
H           21.33076444878096       -7.80836116973563       -1.03144555512022
H           21.28608301633411       -5.34703245352711       -1.38462367663275
H           24.83172841141543       -4.51043530240975        0.49154049464139
H           26.70060453611286       -2.59080227048086        0.30790102452146
H           26.65327880865929        2.62475965253720       -0.36765639125522
H           24.75020269621007        4.50616212366279       -0.59268281814608
H           21.10880157624409        4.89291736547749       -2.44335163935716
H           21.11183348814773        7.37429099543329       -2.60513376440090
H           23.00917013078828        7.75766823993651        1.02037080779063
H           23.07674082781625        5.29346103541607        1.34750844682984
H           19.44089341686579        4.47137548397067       -0.40481868994587
H           17.57948844336709        2.54126755593735       -0.23485178491197
Cu          54.22503513809201        0.03217465977543       -0.00781793806566
C           57.63136124197750        0.04940084338020       -0.05244215155098
C           56.99814555535615        1.25973019946122       -0.29102175521356
C           57.67527388634240        2.50374925605068       -0.52193456098398
C           56.71805827842682        3.44865130478561       -0.69327036506084
C           55.44629738670734        2.78796187035888       -0.57644402431274
N           55.64764618759722        1.46117572683676       -0.32625812247810
C           54.20273765979285        3.41683538003960       -0.66975130373804
C           54.19391157234487        4.87298779463778       -0.95213651554820
C           53.67835541861148        5.78613062057770       -0.03324253107453
C           53.69697196580003        7.13752355386788       -0.34038778675607
N           54.18230383830726        7.61426314947259       -1.48225667485509
C           54.67289399410588        6.75017675216333       -2.36501753543470
C           54.70307500320659        5.38190166355502       -2.14619765496152
C           52.96843139841091        2.78283276435687       -0.51799797297680
C           51.69205016444661        3.42486336131756       -0.65767128528948
C           50.74447186940849        2.47361927268561       -0.46093097955073
N           52.77793495453166        1.45304482092694       -0.24964443205878
C           51.43383871237531        1.24415713025877       -0.20698217510710
C           50.79600742915444        0.01495597953003        0.03513583712690
C           51.45205270456448       -1.20671797558641        0.26594711948622
C           50.78117801438773       -2.45405332927242        0.47847525927882
C           51.74288406639656       -3.39608754047934        0.64950244909176
C           53.00952294253878       -2.72761134996252        0.55050694535353
N           52.79916616818866       -1.39585940966106        0.30797169817124
C           54.25365209538599       -3.35197807959917        0.65719708343552
C           54.26725915499004       -4.80709236082516        0.94310172025711
C           54.81525879667426       -5.71732729948401        0.04001570053456
C           54.80595514790464       -7.06774576795991        0.35163179615361
N           54.29935757178907       -7.54658364198539        1.48331982283873
C           53.77644892510134       -6.68560873599761        2.35044068487701
C           53.73532785219616       -5.31852762321289        2.12618908184279
C           55.48793372677211       -2.71334395879040        0.51611098460284
C           56.76955002671843       -3.34632645465452        0.67238686915362
C           57.71229559078645       -2.39282657693122        0.47105685233503
C           57.01638298446470       -1.16776656691568        0.19872249571777
N           55.66907102877658       -1.38927968494357        0.23766868182223
H           58.71644741077022        0.05730326003242       -0.05349746309713
H           58.74685496365405        2.62522279213013       -0.54128486509654
H           56.85349868189870        4.50323097706552       -0.87167061578237
H           53.28263476224977        5.44384019754065        0.91559461786829
H           53.30566573485697        7.86825049477783        0.36145738071191
H           55.05946816567057        7.16966041763855       -3.28928395461874
H           55.10306689597029        4.71383872677558       -2.89970400908189
H           51.54404830979882        4.46723693224502       -0.88896365802581
H           49.67222777323915        2.58377953177223       -0.48850420225107
H           49.71075979265328       -2.58350395948270        0.48711609754720
H           51.61044441621367       -4.45298213460940        0.81493635366311
H           55.22908054813407       -5.37372509961954       -0.90059652652618
H           55.22355732147810       -7.79583871221916       -0.33767638443476
H           53.37253170424550       -7.10675319656142        3.26648343751150
H           53.30974276644682       -4.65297864943411        2.86776592377840
H           56.92113483143521       -4.38514820821865        0.91760269343683
H           58.78551371340323       -2.49427139881152        0.50747975299660
C           30.77551112005851        0.02951834651120       -0.02940277557040
C           29.54764322046622        0.03141779084025       -0.01839522366647
C           28.20261800903294        0.02850887176098       -0.00788552854650
C           26.97923469240557        0.02286049496626        0.00096578295734
C           32.12039622817444        0.02543054206405       -0.03807603384551
C           33.34396943683323        0.01968965259338       -0.04463772048176
C           46.82136473255024       -0.00055231137800        0.02275190979709
C           45.59341256600273       -0.00142812647300        0.01259287217770
C           44.24871720720250       -0.00299291716217        0.00100474865864
C           43.02508965604336       -0.00155824844883       -0.00919037814992
C           48.16624474270934        0.00205740246133        0.02877639690601
C           49.38972338211919        0.00567994560539        0.03405246515375
Cu          38.18441514115316        0.00015428195370       -0.03792474483354
C           34.74976072050032        0.01170463163700       -0.04607301384147
C           35.39243988488736       -0.87965566806577        0.83146144400851
C           34.70914402998110       -1.74285782864815        1.74737953378010
C           35.66092862262760       -2.44451471220100        2.41366601156395
C           36.93249974060343       -2.01919810281663        1.90143308610813
N           36.73613729645002       -1.06022519966351        0.94383824744436
C           38.17061282195902       -2.49778444483792        2.33468701839057
C           38.16525099329892       -3.56853697288854        3.36080505941720
C           37.59184599077314       -4.81393678648303        3.10725163956357
C           37.61339941752083       -5.78224654444122        4.09866683608087
N           38.15460922681120       -5.58142154153319        5.29590481934782
C           38.70129137416817       -4.39612839619830        5.54666413728705
C           38.73339496941710       -3.36762015234004        4.61827656394787
C           39.41379363329231       -2.04904378074732        1.88429802289237
C           40.67995483364664       -2.58957357657894        2.29028454385513
C           41.63965371799372       -1.89244431259389        1.63056784625280
N           39.62114301894871       -1.04449388094373        0.97716406685647
C           40.96656405654365       -0.92888155108181        0.81245366767861
C           41.61952969682227       -0.00215860844743       -0.01974153102572
C           40.97669562598281        0.92360283834368       -0.86081072739677
C           41.65948673409589        1.88499613070161       -1.67338232230748
C           40.70770784194310        2.58050871267835       -2.34618295503482
C           39.43665571965693        2.04195707843006       -1.95296501805159
N           39.63322066728688        1.03954744651273       -1.04108091282529
C           38.19876890379928        2.49187354496420       -2.41687849830587
C           38.20586804836515        3.55930971844812       -3.44637095782451
C           38.78812538813920        3.35421241219955       -4.69671542015260
C           38.76768745876195        4.38004786410944       -5.62840034552527
N           38.21915739644867        5.56653237296259       -5.38748892065894
C           37.66445695306904        5.77136248562022       -4.19712690355664
C           37.63091127602262        4.80608978403894       -3.20310088547879
C           36.95538799797890        2.01957086711485       -1.99165115956227
C           35.68915886045666        2.44968789048853       -2.51313776188372
C           34.72945543657082        1.75827119895875       -1.84745365535524
C           35.40255497006556        0.89515809708816       -0.92401838997885
N           36.74798153234454        1.06604292878279       -1.03091515644057
H           33.63844950397532       -1.79290303589236        1.86437000820930
H           35.51858106985031       -3.17592899842803        3.19255891579766
H           37.14913952670352       -5.02647471492896        2.14142098087591
H           37.17706310624352       -6.76124820535661        3.92318759145297
H           39.13312408819604       -4.26167336469269        6.53412736971508
H           39.18013041926466       -2.41333906357634        4.87085946527417
H           40.81348655622359       -3.40646904724617        2.98077079216439
H           42.70943875654525       -2.01721633244258        1.68141365723240
H           42.72984874906977        2.00913189592315       -1.71226252957206
H           40.84955199532186        3.39553723419833       -3.03721445189858
H           39.23677496876120        2.39879790699970       -4.94148998102255
H           39.21070126750443        4.24231968509842       -6.61043761277849
H           37.22706162449197        6.75126204001488       -4.02949545721245
H           37.17779779732067        5.02211258729874       -2.24288803727706
H           35.55533507885499        3.17726943756746       -3.29711084274793
H           33.65967552671925        1.81430345369088       -1.97008811603882

          :  Hamiltonian                  GFN1-xTB          :
         :: total energy            -313.165852997022 Eh    ::
         :: gradient norm              0.000313450763 Eh/a0 ::
         :: HOMO-LUMO gap              0.000030541589 eV    ::
         :: SCC energy              -318.169918366333 Eh    ::
         :: repulsion energy           5.161357636054 Eh    ::

    * Orbital Energies and Occupations

         #    Occupation            Energy/Eh            Energy/eV
      -------------------------------------------------------------
         1        2.0000           -0.7709836             -20.9795
       ...           ...                  ...                  ...
       279        2.0000           -0.4148829             -11.2895
       280        2.0000           -0.4148628             -11.2890
       281        2.0000           -0.4144925             -11.2789
       282        2.0000           -0.4143234             -11.2743
       283        2.0000           -0.4138283             -11.2608
       284        2.0000           -0.4022030             -10.9445
       285        2.0000           -0.4021792             -10.9439
       286        2.0000           -0.4021022             -10.9418
       287        2.0000           -0.3969344             -10.8011
       288        2.0000           -0.3922602             -10.6739
       289        2.0000           -0.3854154             -10.4877
       290        1.0191           -0.3625100              -9.8644
       291        0.9907           -0.3624493              -9.8627 (HOMO)
       292        0.9902           -0.3624481              -9.8627 (LUMO)
       293        0.0000           -0.3467938              -9.4367
       294                         -0.3392445              -9.2313
       295                         -0.3352624              -9.1230
       296                         -0.3352401              -9.1223
       297                         -0.3350454              -9.1170
       298                         -0.3339344              -9.0868
       299                         -0.3111956              -8.4681
       300                         -0.3037568              -8.2656
       301                         -0.3021873              -8.2229
       302                         -0.2872508              -7.8165
       ...                                ...                  ...
       607                          1.5758590              42.8813
      -------------------------------------------------------------
                  HL-Gap            0.0000011 Eh            0.0000 eV

Wiberg/Mayer (AO) data.
largest (>0.10) Wiberg bond orders for each atom

     #   Z sym  total        # sym  WBO       # sym  WBO       # sym  WBO
 ---------------------------------------------------------------------------
     1  29 Cu   2.190 --     7 N    0.506    37 N    0.506    25 N    0.503
                            18 N    0.503
     2   6 C    3.931 --     3 C    1.362    36 C    1.362    38 H    0.971
     3   6 C    3.916 --     2 C    1.362     7 N    1.229     4 C    1.170
     4   6 C    3.955 --     5 C    1.657     3 C    1.170    39 H    0.975
     5   6 C    3.958 --     4 C    1.657     6 C    1.171    40 H    0.973
     6   6 C    3.914 --     8 C    1.319     7 N    1.239     5 C    1.171
     7   7 N    3.244 --     6 C    1.239     3 C    1.229     1 Cu   0.506
     8   6 C    3.935 --    15 C    1.327     6 C    1.319     9 C    1.026
     9   6 C    3.986 --    10 C    1.394    14 C    1.393     8 C    1.026
                            12 N    0.107
    10   6 C    3.987 --    11 C    1.442     9 C    1.394    41 H    0.973
                            13 C    0.109
    11   6 C    3.972 --    10 C    1.442    12 N    1.416    42 H    0.972
                            14 C    0.109
    12   7 N    3.030 --    11 C    1.416    13 C    1.416     9 C    0.107
    13   6 C    3.972 --    14 C    1.442    12 N    1.416    43 H    0.972
                            10 C    0.109
    14   6 C    3.987 --    13 C    1.442     9 C    1.393    44 H    0.973
                            11 C    0.109
    15   6 C    3.908 --     8 C    1.327    18 N    1.222    16 C    1.178
    16   6 C    3.954 --    17 C    1.644    15 C    1.178    45 H    0.973
    17   6 C    3.957 --    16 C    1.644    19 C    1.186    46 H    0.974
    18   7 N    3.248 --    19 C    1.256    15 C    1.222     1 Cu   0.503
    19   6 C    3.897 --    20 C    1.261    18 N    1.256    17 C    1.186
    20   6 C    3.941 --    21 C    1.261    19 C    1.261   112 C    1.185
    21   6 C    3.897 --    20 C    1.261    25 N    1.255    22 C    1.186
    22   6 C    3.956 --    23 C    1.643    21 C    1.186    47 H    0.974
    23   6 C    3.954 --    22 C    1.643    24 C    1.179    48 H    0.973
    24   6 C    3.908 --    26 C    1.326    25 N    1.222    23 C    1.179
    25   7 N    3.248 --    21 C    1.255    24 C    1.222     1 Cu   0.503
    26   6 C    3.935 --    24 C    1.326    33 C    1.319    27 C    1.028
    27   6 C    3.986 --    32 C    1.393    28 C    1.393    26 C    1.028
                            30 N    0.107
    28   6 C    3.987 --    29 C    1.442    27 C    1.393    49 H    0.973
                            31 C    0.108
    29   6 C    3.972 --    28 C    1.442    30 N    1.416    50 H    0.972
                            32 C    0.108
    30   7 N    3.030 --    29 C    1.416    31 C    1.415    27 C    0.107
    31   6 C    3.972 --    32 C    1.442    30 N    1.415    51 H    0.972
                            28 C    0.108
    32   6 C    3.987 --    31 C    1.442    27 C    1.393    52 H    0.973
                            29 C    0.108
    33   6 C    3.914 --    26 C    1.319    37 N    1.239    34 C    1.172
    34   6 C    3.958 --    35 C    1.656    33 C    1.172    53 H    0.973
    35   6 C    3.955 --    34 C    1.656    36 C    1.170    54 H    0.975
    36   6 C    3.916 --     2 C    1.362    37 N    1.229    35 C    1.170
    37   7 N    3.244 --    33 C    1.239    36 C    1.229     1 Cu   0.506
    38   1 H    1.001 --     2 C    0.971
    39   1 H    0.998 --     4 C    0.975
    40   1 H    1.004 --     5 C    0.973
    41   1 H    1.004 --    10 C    0.973
    42   1 H    1.013 --    11 C    0.972
    43   1 H    1.013 --    13 C    0.972
    44   1 H    1.004 --    14 C    0.973
    45   1 H    1.004 --    16 C    0.973
    46   1 H    1.002 --    17 C    0.974
    47   1 H    1.002 --    22 C    0.974
    48   1 H    1.004 --    23 C    0.973
    49   1 H    1.004 --    28 C    0.973
    50   1 H    1.013 --    29 C    0.972
    51   1 H    1.013 --    31 C    0.972
    52   1 H    1.004 --    32 C    0.973
    53   1 H    1.004 --    34 C    0.973
    54   1 H    0.998 --    35 C    0.975
    55  29 Cu   2.190 --    91 N    0.506    61 N    0.506    72 N    0.503
                            79 N    0.503
    56   6 C    3.930 --    90 C    1.362    57 C    1.362    92 H    0.971
    57   6 C    3.916 --    56 C    1.362    61 N    1.229    58 C    1.170
    58   6 C    3.955 --    59 C    1.657    57 C    1.170    93 H    0.975
    59   6 C    3.958 --    58 C    1.657    60 C    1.172    94 H    0.973
    60   6 C    3.914 --    62 C    1.319    61 N    1.239    59 C    1.172
    61   7 N    3.244 --    60 C    1.239    57 C    1.229    55 Cu   0.506
    62   6 C    3.935 --    69 C    1.327    60 C    1.319    63 C    1.026
    63   6 C    3.986 --    64 C    1.393    68 C    1.393    62 C    1.026
                            66 N    0.107
    64   6 C    3.987 --    65 C    1.442    63 C    1.393    95 H    0.973
                            67 C    0.109
    65   6 C    3.972 --    64 C    1.442    66 N    1.416    96 H    0.972
                            68 C    0.109
    66   7 N    3.030 --    67 C    1.416    65 C    1.416    63 C    0.107
    67   6 C    3.972 --    68 C    1.442    66 N    1.416    97 H    0.972
                            64 C    0.109
    68   6 C    3.987 --    67 C    1.442    63 C    1.393    98 H    0.973
                            65 C    0.109
    69   6 C    3.908 --    62 C    1.327    72 N    1.222    70 C    1.179
    70   6 C    3.954 --    71 C    1.644    69 C    1.179    99 H    0.973
    71   6 C    3.956 --    70 C    1.644    73 C    1.186   100 H    0.974
    72   7 N    3.248 --    73 C    1.256    69 C    1.222    55 Cu   0.503
    73   6 C    3.897 --    74 C    1.260    72 N    1.256    71 C    1.186
    74   6 C    3.940 --    75 C    1.261    73 C    1.260   120 C    1.186
    75   6 C    3.897 --    74 C    1.261    79 N    1.256    76 C    1.186
    76   6 C    3.956 --    77 C    1.643    75 C    1.186   101 H    0.974
    77   6 C    3.954 --    76 C    1.643    78 C    1.179   102 H    0.973
    78   6 C    3.908 --    80 C    1.326    79 N    1.222    77 C    1.179
    79   7 N    3.248 --    75 C    1.256    78 C    1.222    55 Cu   0.503
    80   6 C    3.935 --    78 C    1.326    87 C    1.319    81 C    1.028
    81   6 C    3.986 --    86 C    1.393    82 C    1.393    80 C    1.028
                            84 N    0.107
    82   6 C    3.987 --    83 C    1.442    81 C    1.393   103 H    0.973
                            85 C    0.108
    83   6 C    3.972 --    82 C    1.442    84 N    1.415   104 H    0.972
                            86 C    0.108
    84   7 N    3.030 --    85 C    1.416    83 C    1.415    81 C    0.107
    85   6 C    3.972 --    86 C    1.442    84 N    1.416   105 H    0.972
                            82 C    0.108
    86   6 C    3.987 --    85 C    1.442    81 C    1.393   106 H    0.973
                            83 C    0.108
    87   6 C    3.914 --    80 C    1.319    91 N    1.239    88 C    1.172
    88   6 C    3.958 --    89 C    1.656    87 C    1.172   107 H    0.973
    89   6 C    3.955 --    88 C    1.656    90 C    1.170   108 H    0.975
    90   6 C    3.916 --    56 C    1.362    91 N    1.229    89 C    1.170
    91   7 N    3.244 --    87 C    1.239    90 C    1.229    55 Cu   0.506
    92   1 H    1.001 --    56 C    0.971
    93   1 H    0.998 --    58 C    0.975
    94   1 H    1.004 --    59 C    0.973
    95   1 H    1.004 --    64 C    0.973
    96   1 H    1.013 --    65 C    0.972
    97   1 H    1.013 --    67 C    0.972
    98   1 H    1.004 --    68 C    0.973
    99   1 H    1.004 --    70 C    0.973
   100   1 H    1.002 --    71 C    0.974
   101   1 H    1.002 --    76 C    0.974
   102   1 H    1.004 --    77 C    0.973
   103   1 H    1.004 --    82 C    0.973
   104   1 H    1.013 --    83 C    0.972
   105   1 H    1.013 --    85 C    0.972
   106   1 H    1.004 --    86 C    0.973
   107   1 H    1.004 --    88 C    0.973
   108   1 H    0.998 --    89 C    0.975
   109   6 C    3.926 --   110 C    2.373   113 C    1.331   112 C    0.190
   110   6 C    3.925 --   109 C    2.373   111 C    1.331   114 C    0.190
   111   6 C    3.936 --   112 C    2.455   110 C    1.331
   112   6 C    3.890 --   111 C    2.455    20 C    1.185   109 C    0.190
   113   6 C    3.933 --   114 C    2.453   109 C    1.331
   114   6 C    3.891 --   113 C    2.453   122 C    1.188   110 C    0.190
   115   6 C    3.925 --   116 C    2.372   119 C    1.331   118 C    0.190
   116   6 C    3.926 --   115 C    2.372   117 C    1.332   120 C    0.191
   117   6 C    3.933 --   118 C    2.452   116 C    1.332
   118   6 C    3.891 --   117 C    2.452   140 C    1.189   115 C    0.190
   119   6 C    3.936 --   120 C    2.454   115 C    1.331
   120   6 C    3.890 --   119 C    2.454    74 C    1.186   116 C    0.191
   121  29 Cu   2.160 --   157 N    0.498   127 N    0.498   145 N    0.498
                           138 N    0.498
   122   6 C    3.929 --   156 C    1.258   123 C    1.258   114 C    1.188
   123   6 C    3.898 --   127 N    1.258   122 C    1.258   124 C    1.187
   124   6 C    3.955 --   125 C    1.642   123 C    1.187   158 H    0.974
   125   6 C    3.955 --   124 C    1.642   126 C    1.180   159 H    0.973
   126   6 C    3.907 --   128 C    1.323   127 N    1.223   125 C    1.180
   127   7 N    3.241 --   123 C    1.258   126 C    1.223   121 Cu   0.498
   128   6 C    3.931 --   126 C    1.323   135 C    1.323   129 C    1.028
   129   6 C    3.986 --   130 C    1.393   134 C    1.393   128 C    1.028
                           132 N    0.107
   130   6 C    3.987 --   131 C    1.442   129 C    1.393   160 H    0.973
                           133 C    0.108
   131   6 C    3.972 --   130 C    1.442   132 N    1.416   161 H    0.972
                           134 C    0.109
   132   7 N    3.030 --   131 C    1.416   133 C    1.415   129 C    0.107
   133   6 C    3.972 --   134 C    1.442   132 N    1.415   162 H    0.972
                           130 C    0.108
   134   6 C    3.987 --   133 C    1.442   129 C    1.393   163 H    0.973
                           131 C    0.109
   135   6 C    3.907 --   128 C    1.323   138 N    1.223   136 C    1.180
   136   6 C    3.955 --   137 C    1.642   135 C    1.180   164 H    0.973
   137   6 C    3.955 --   136 C    1.642   139 C    1.187   165 H    0.974
   138   7 N    3.241 --   139 C    1.259   135 C    1.223   121 Cu   0.498
   139   6 C    3.897 --   138 N    1.259   140 C    1.258   137 C    1.187
   140   6 C    3.929 --   141 C    1.258   139 C    1.258   118 C    1.189
   141   6 C    3.897 --   145 N    1.258   140 C    1.258   142 C    1.187
   142   6 C    3.955 --   143 C    1.642   141 C    1.187   166 H    0.974
   143   6 C    3.955 --   142 C    1.642   144 C    1.180   167 H    0.973
   144   6 C    3.907 --   146 C    1.323   145 N    1.223   143 C    1.180
   145   7 N    3.241 --   141 C    1.258   144 C    1.223   121 Cu   0.498
   146   6 C    3.931 --   153 C    1.323   144 C    1.323   147 C    1.028
   147   6 C    3.986 --   152 C    1.393   148 C    1.392   146 C    1.028
                           150 N    0.107
   148   6 C    3.987 --   149 C    1.442   147 C    1.392   168 H    0.973
                           151 C    0.108
   149   6 C    3.972 --   148 C    1.442   150 N    1.415   169 H    0.972
                           152 C    0.108
   150   7 N    3.030 --   151 C    1.416   149 C    1.415   147 C    0.107
   151   6 C    3.972 --   152 C    1.442   150 N    1.416   170 H    0.972
                           148 C    0.108
   152   6 C    3.987 --   151 C    1.442   147 C    1.393   171 H    0.973
                           149 C    0.108
   153   6 C    3.907 --   146 C    1.323   157 N    1.223   154 C    1.180
   154   6 C    3.955 --   155 C    1.642   153 C    1.180   172 H    0.973
   155   6 C    3.955 --   154 C    1.642   156 C    1.187   173 H    0.974
   156   6 C    3.898 --   157 N    1.258   122 C    1.258   155 C    1.187
   157   7 N    3.241 --   156 C    1.258   153 C    1.223   121 Cu   0.498
   158   1 H    1.002 --   124 C    0.974
   159   1 H    1.004 --   125 C    0.973
   160   1 H    1.004 --   130 C    0.973
   161   1 H    1.013 --   131 C    0.972
   162   1 H    1.013 --   133 C    0.972
   163   1 H    1.004 --   134 C    0.973
   164   1 H    1.004 --   136 C    0.973
   165   1 H    1.002 --   137 C    0.974
   166   1 H    1.002 --   142 C    0.974
   167   1 H    1.004 --   143 C    0.973
   168   1 H    1.004 --   148 C    0.973
   169   1 H    1.013 --   149 C    0.972
   170   1 H    1.013 --   151 C    0.972
   171   1 H    1.004 --   152 C    0.973
   172   1 H    1.004 --   154 C    0.973
   173   1 H    1.002 --   155 C    0.974
 ---------------------------------------------------------------------------

           -------------------------------------------------
          | TOTAL ENERGY             -313.165852997022 Eh   |
          | GRADIENT NORM               0.000313450763 Eh/α |
          | HOMO-LUMO GAP               0.000030541589 eV   |
           -------------------------------------------------

 * finished run on 2022/07/30 at 04:54:34.535
