   * xtb version 6.5.1 (b24c23e) compiled by 'conda@728c89f4b128' on 2022-07-12
          program call               : xtb p-CP_C6_2.xyz --gfn 1 --opt -T 48

   ID    Z sym.   atoms
    1    6 C      1-5, 7-10, 12-23, 26-31, 34-38, 41, 42, 64-68, 70-73,
                  75-86, 89-94, 97-101, 104, 105, 127-132
    2    7 N      6, 11, 32, 33, 69, 74, 95, 96
    3    8 O      24, 25, 39, 40, 87, 88, 102, 103
    4    1 H      43-63, 106-126
########################################################################
[WARNING] Please study the warnings concerning your input carefully
-1- prog_main_parseArguments: Unknown option '-T' provided
########################################################################

          :  Hamiltonian                  GFN1-xTB          :
 * total energy  :  -241.5416548 Eh     change       -0.8114398E-09 Eh
 * total energy  :  -241.8921037 Eh     change       -0.3504489E+00 Eh
 * total energy  :  -241.9779576 Eh     change       -0.8585386E-01 Eh
 * total energy  :  -242.0120447 Eh     change       -0.3408710E-01 Eh
 * total energy  :  -242.0238937 Eh     change       -0.1184904E-01 Eh
 * total energy  :  -242.0309700 Eh     change       -0.7076266E-02 Eh
 * total energy  :  -242.0340485 Eh     change       -0.3078482E-02 Eh
 * total energy  :  -242.0359210 Eh     change       -0.1872511E-02 Eh
 * total energy  :  -242.0375920 Eh     change       -0.1671077E-02 Eh
 * total energy  :  -242.0390397 Eh     change       -0.1447628E-02 Eh
 * total energy  :  -242.0472770 Eh     change       -0.1699097E-04 Eh
 * total energy  :  -242.0472886 Eh     change       -0.1164729E-04 Eh
 * total energy  :  -242.0472928 Eh     change       -0.4142276E-05 Eh
 * total energy  :  -242.0472824 Eh     change        0.1032865E-04 Eh
 * total energy  :  -242.0472983 Eh     change       -0.1582131E-04 Eh
 * total energy  :  -242.0472845 Eh     change        0.1373117E-04 Eh
 * total energy  :  -242.0473023 Eh     change       -0.1780106E-04 Eh
 * total energy  :  -242.0473053 Eh     change       -0.2973287E-05 Eh
 * total energy  :  -242.0473085 Eh     change       -0.3177406E-05 Eh
   *** GEOMETRY OPTIMIZATION CONVERGED AFTER 50 ITERATIONS ***

 final structure:
================
132
 xtb: 6.5.1 (b24c23e)
C           13.17808056968987       -0.12324694231534        0.04338791828307
C           13.78919034100642       -1.35834455046850       -0.12935687528023
C           13.14042169510659       -2.61620705544473       -0.27891954852129
C           14.10437609892857       -3.56976723315122       -0.44786320319180
C           15.37318026473048       -2.92350075660805       -0.41459513572850
N           15.13265343342254       -1.59502113740618       -0.20928059337026
C           16.63741523662388       -3.51100940594169       -0.53963210045818
C           17.85290081345591       -2.82889069829289       -0.44414392478759
C           19.15052812178420       -3.45312640447886       -0.63096267308792
C           20.07025389857711       -2.48209795976894       -0.45551415284700
N           18.00585611843088       -1.50109088574635       -0.18516987381079
C           19.33316803305701       -1.26491527820902       -0.17539969801784
C           19.96943609885025       -0.03078546369752        0.06982936568575
C           19.33189375783399        1.20502376647340        0.28978434035565
C           19.97316742909880        2.44580628223916        0.54565463934581
C           19.00485293726174        3.40292429914706        0.67267021513707
C           17.74125049858061        2.77513651844161        0.49131420244328
C           16.47802995003952        3.37423617459568        0.55063453139850
C           16.44377405174927        4.84126252121700        0.75430590467628
C           17.04490257697159        5.69733585927731       -0.17288928216722
C           17.00242095174609        7.06691823902237        0.01080800775546
C           16.36310849652086        7.60754289374639        1.12817142874368
C           16.34167888356064        9.08193626548812        1.27963736513950
O           15.69478262961955        9.49967837453171        2.37834467598735
O           16.84783162328997        9.85290760648116        0.50428522713001
C           15.76688740728592        6.75748616780071        2.06022843142774
C           15.80640972860912        5.38713801835701        1.87176761327434
C           15.26146412370464        2.69361008172047        0.42942134163320
C           13.95669388229598        3.33738978867847        0.44748915783847
C           13.04393693852058        2.35446288067766        0.31383074530698
C           13.78984529262799        1.11362886009362        0.19796769731054
N           15.12197769923870        1.35742245973002        0.26257459798649
N           17.99043505273534        1.44613179672474        0.27372076780134
C           16.66959815348781       -4.97037616729752       -0.79694951549279
C           16.07663243137845       -5.49674746509781       -1.94755223960953
C           16.10894443582545       -6.85759045348601       -2.19674278753633
C           16.73178541083606       -7.71762283459778       -1.29174950334396
C           16.79286721016925       -9.18216789939924       -1.51243987912168
O           16.20317722567645       -9.57858249221498       -2.65065977008286
O           17.31552840021559       -9.96291061507999       -0.75831540646140
C           17.32139216186686       -7.19681317711746       -0.13823344164691
C           17.29273476771116       -5.83622867413950        0.10584661595111
H           12.09281284883299       -0.13434786816578        0.04863595301876
H           12.07203049066590       -2.75983616522292       -0.25391303133219
H           13.95583690429426       -4.62981595142477       -0.57497269195842
H           15.85578927144022       -0.88824726682895       -0.12707581745024
H           19.31390173494253       -4.48982276715667       -0.87667070777660
H           21.14436402803432       -2.55427349464011       -0.51470611712729
H           21.04005870479214        2.57858113424665        0.62503746133600
H           19.14950645270220        4.44976543018196        0.88428135670042
H           17.52796898976743        5.28098669161804       -1.04963038878619
H           17.46006228877911        7.73661067754951       -0.70904648062591
H           15.72531290093757       10.46986566672660        2.40268813023219
H           15.27429463468265        7.17233545847530        2.93166552184516
H           15.35443906741846        4.72680648415700        2.60319777181650
H           13.78699025881983        4.39823981754473        0.53721574087146
H           11.96843933136891        2.43102338281537        0.28149228598764
H           17.27060845547768        0.74635781117045        0.12623349563185
H           15.60523236247735       -4.82760633093373       -2.65865936038415
H           15.65319620027918       -7.25662409253883       -3.09518765891431
H           16.28866101374685      -10.54320598940751       -2.72125191470033
H           17.79944017729332       -7.87467211931773        0.56038563327548
H           17.74048823326611       -5.43538472424228        1.00801341253746
C           35.93509907368254        0.08879427957820        0.09828799676067
C           35.32409564529500        1.27174337252258        0.49331836742627
C           35.97322916336317        2.46419917622159        0.92014126059442
C           35.00955080490846        3.39313720387944        1.19473650470123
C           33.74053374954800        2.80000003387903        0.93704127891349
N           33.98071601674844        1.51956946574322        0.52752728493060
C           32.47631797204272        3.38089653957881        1.09014726690131
C           31.26083108233314        2.72761565754697        0.87194471232345
C           29.96294766760731        3.36818840618916        0.98801700699930
C           29.04345113799481        2.42137119323162        0.70935959177829
N           31.10818799292172        1.42499424941586        0.50656897718754
C           29.78091178237820        1.20883032683705        0.41066835954711
C           29.14493997838467       -0.00363990133313        0.07369782116455
C           29.78244078708513       -1.20610248637913       -0.28652375743301
C           29.14063467669930       -2.42847897689755       -0.61840958198804
C           30.10868772924973       -3.34133921144013       -0.93363186265604
C           31.37270482975680       -2.70057914188465       -0.80964110323466
C           32.63595019027679       -3.26418047288017       -1.02118989761273
C           32.67020745861791       -4.66659087144933       -1.49743351481066
C           32.07237124159850       -5.01491773263482       -2.71202916839683
C           32.11492767703359       -6.32129128417048       -3.16243760079564
C           32.75106673420147       -7.30653533710495       -2.40470093503233
C           32.77298625704847       -8.69202716308917       -2.93116391909501
O           33.41465260953805       -9.55953608834212       -2.13378267712736
O           32.27104217087587       -9.03218475711321       -3.97238114586165
C           33.34395631961460       -6.96579513532918       -1.18847943313320
C           33.30431850790635       -5.65660270097690       -0.74194891132245
C           33.85253074634603       -2.60282709236969       -0.81973925853452
C           35.15774745639276       -3.18784965185973       -1.08677937278411
C           36.07014792829724       -2.24953434938976       -0.76394613539705
C           35.32363555966492       -1.08704774013708       -0.31584639427817
N           33.99151752561146       -1.33317548555334       -0.37095499381811
N           31.12392067169308       -1.41549944857197       -0.40663808867842
C           32.44447333764283        4.80081537185550        1.51427735790329
C           33.03547538034787        5.78732939675124        0.72048043517863
C           33.00427232528660        7.11538961605394        1.10822004761060
C           32.38455188252554        7.47819825676166        2.30444123528931
C           32.32558214337389        8.88604366062718        2.76472406288185
O           32.91315019142528        9.75085878095642        1.92369265140609
O           31.80546441687973        9.24560763382083        3.79028158338523
C           31.79659241399609        6.49539584443187        3.10314978250611
C           31.82416899314628        5.16986418080072        2.71097032090159
H           37.02035865981917        0.09594663950869        0.10949272476613
H           37.04168267960507        2.58143509492478        1.00600308453226
H           35.15843579247416        4.39859817513307        1.55361996892372
H           33.25723224049131        0.85058162436455        0.28619078850750
H           29.79920505751253        4.40442199370423        1.23541671731932
H           27.96925118746358        2.51170398814668        0.69076336379089
H           28.07355425252992       -2.58160013642415       -0.61003015104226
H           29.96354224577932       -4.37115696404203       -1.21645849727387
H           31.59187205235657       -4.24891815091968       -3.31014904457509
H           31.65987641658641       -6.59620403832273       -4.10768206570001
H           33.38468610940722      -10.43735284364767       -2.54770622866126
H           33.83413565432500       -7.72807161360470       -0.59448862092502
H           33.75361646778622       -5.39531944104423        0.20945797391399
H           35.32807877239362       -4.17711103269058       -1.47996203631443
H           37.14581285252196       -2.30446688364722       -0.82330179811712
H           31.84418075679211       -0.72514480892703       -0.22162982607555
H           33.50459278576498        5.50820240148143       -0.21634972142884
H           33.45859572900879        7.87496850494243        0.48309423449328
H           32.82889696088597       10.64462283902345        2.29365215366404
H           31.32096984444874        6.78790890931271        4.03283479021199
H           31.37791927380134        4.40702131367939        3.33866010860359
C           25.17141469133581       -0.02698462617010        0.10497032265510
C           23.94297068759194       -0.02141700572718        0.10664785997677
C           22.59887143647641       -0.01861248737942        0.10074461734514
C           21.37487685405161       -0.01950790366397        0.08763858141694
C           26.51550354929820       -0.02797617903373        0.09677938656489
C           27.73949457791102       -0.02232207592980        0.08464537886540

          :  Hamiltonian                  GFN1-xTB          :
         :: total energy            -242.047308489499 Eh    ::
         :: gradient norm              0.000409507204 Eh/a0 ::
         :: HOMO-LUMO gap              1.025408962408 eV    ::
         :: SCC energy              -245.713124718755 Eh    ::
         :: repulsion energy           3.774986273557 Eh    ::

    * Orbital Energies and Occupations

         #    Occupation            Energy/Eh            Energy/eV
      -------------------------------------------------------------
         1        2.0000           -0.8323235             -22.6487
       ...           ...                  ...                  ...
       201        2.0000           -0.4302936             -11.7089
       202        2.0000           -0.4290165             -11.6741
       203        2.0000           -0.4283113             -11.6549
       204        2.0000           -0.4255169             -11.5789
       205        2.0000           -0.4253405             -11.5741
       206        2.0000           -0.4240370             -11.5386
       207        2.0000           -0.4236660             -11.5285
       208        2.0000           -0.4232015             -11.5159
       209        2.0000           -0.4206239             -11.4458
       210        2.0000           -0.4074869             -11.0883
       211        2.0000           -0.4071977             -11.0804
       212        2.0000           -0.3965503             -10.7907
       213        2.0000           -0.3871784             -10.5357 (HOMO)
       214                         -0.3494953              -9.5103 (LUMO)
       215                         -0.3417877              -9.3005
       216                         -0.3412624              -9.2862
       217                         -0.3378639              -9.1937
       218                         -0.3163933              -8.6095
       219                         -0.3142572              -8.5514
       220                         -0.3084655              -8.3938
       221                         -0.3084210              -8.3926
       222                         -0.3026515              -8.2356
       223                         -0.2969461              -8.0803
       224                         -0.2919002              -7.9430
       ...                                ...                  ...
       444                          1.5722863              42.7841
      -------------------------------------------------------------
                  HL-Gap            0.0376831 Eh            1.0254 eV

Wiberg/Mayer (AO) data.
largest (>0.10) Wiberg bond orders for each atom

     #   Z sym  total        # sym  WBO       # sym  WBO       # sym  WBO
 ---------------------------------------------------------------------------
     1   6 C    3.926 --    31 C    1.367     2 C    1.347    43 H    0.971
     2   6 C    3.901 --     1 C    1.347     3 C    1.229     6 N    1.169
     3   6 C    3.953 --     4 C    1.596     2 C    1.229    44 H    0.976
     4   6 C    3.959 --     3 C    1.596     5 C    1.234    45 H    0.974
     5   6 C    3.896 --     7 C    1.301     4 C    1.234     6 N    1.179
     6   7 N    3.470 --     5 C    1.179     2 C    1.169    46 H    0.873
     7   6 C    3.938 --     8 C    1.334     5 C    1.301    34 C    1.032
     8   6 C    3.914 --     7 C    1.334    11 N    1.286     9 C    1.124
     9   6 C    3.965 --    10 C    1.711     8 C    1.124    47 H    0.973
    10   6 C    3.964 --     9 C    1.711    12 C    1.127    48 H    0.974
    11   7 N    3.022 --    12 C    1.344     8 C    1.286
    12   6 C    3.907 --    11 N    1.344    13 C    1.254    10 C    1.127
    13   6 C    3.937 --    12 C    1.254    14 C    1.252   130 C    1.192
    14   6 C    3.884 --    13 C    1.252    15 C    1.249    33 N    1.189
    15   6 C    3.959 --    16 C    1.583    14 C    1.249    49 H    0.975
    16   6 C    3.954 --    15 C    1.583    17 C    1.240    50 H    0.974
    17   6 C    3.898 --    18 C    1.307    16 C    1.240    33 N    1.167
    18   6 C    3.924 --    28 C    1.319    17 C    1.307    19 C    1.035
    19   6 C    3.986 --    27 C    1.385    20 C    1.383    18 C    1.035
    20   6 C    3.985 --    21 C    1.465    19 C    1.383    51 H    0.972
                            26 C    0.102
    21   6 C    3.990 --    20 C    1.465    22 C    1.384    52 H    0.968
                            27 C    0.102
    22   6 C    3.981 --    26 C    1.388    21 C    1.384    23 C    1.010
    23   6 C    3.835 --    25 O    1.689    24 O    1.088    22 C    1.010
    24   8 O    2.096 --    23 C    1.088    53 H    0.838    25 O    0.128
    25   8 O    1.957 --    23 C    1.689    24 O    0.128
    26   6 C    3.991 --    27 C    1.462    22 C    1.388    54 H    0.970
                            20 C    0.102
    27   6 C    3.987 --    26 C    1.462    19 C    1.385    55 H    0.972
                            21 C    0.102
    28   6 C    3.929 --    18 C    1.319    32 N    1.318    29 C    1.117
    29   6 C    3.967 --    30 C    1.723    28 C    1.117    56 H    0.973
    30   6 C    3.966 --    29 C    1.723    31 C    1.116    57 H    0.976
    31   6 C    3.928 --     1 C    1.367    32 N    1.299    30 C    1.116
    32   7 N    3.012 --    28 C    1.318    31 C    1.299
    33   7 N    3.474 --    14 C    1.189    17 C    1.167    58 H    0.873
    34   6 C    3.986 --    35 C    1.386    42 C    1.384     7 C    1.032
    35   6 C    3.987 --    36 C    1.462    34 C    1.386    59 H    0.972
                            41 C    0.102
    36   6 C    3.991 --    35 C    1.462    37 C    1.388    60 H    0.970
                            42 C    0.102
    37   6 C    3.982 --    36 C    1.388    41 C    1.385    38 C    1.010
    38   6 C    3.836 --    40 O    1.690    39 O    1.088    37 C    1.010
    39   8 O    2.096 --    38 C    1.088    61 H    0.838    40 O    0.128
    40   8 O    1.958 --    38 C    1.690    39 O    0.128
    41   6 C    3.990 --    42 C    1.465    37 C    1.385    62 H    0.968
                            35 C    0.102
    42   6 C    3.987 --    41 C    1.465    34 C    1.384    63 H    0.972
                            36 C    0.102
    43   1 H    1.002 --     1 C    0.971
    44   1 H    0.997 --     3 C    0.976
    45   1 H    1.004 --     4 C    0.974
    46   1 H    0.986 --     6 N    0.873
    47   1 H    1.004 --     9 C    0.973
    48   1 H    1.003 --    10 C    0.974
    49   1 H    1.002 --    15 C    0.975
    50   1 H    1.004 --    16 C    0.974
    51   1 H    1.004 --    20 C    0.972
    52   1 H    1.005 --    21 C    0.968
    53   1 H    0.873 --    24 O    0.838
    54   1 H    1.005 --    26 C    0.970
    55   1 H    1.004 --    27 C    0.972
    56   1 H    1.004 --    29 C    0.973
    57   1 H    0.998 --    30 C    0.976
    58   1 H    0.987 --    33 N    0.873
    59   1 H    1.004 --    35 C    0.972
    60   1 H    1.005 --    36 C    0.970
    61   1 H    0.873 --    39 O    0.838
    62   1 H    1.005 --    41 C    0.968
    63   1 H    1.004 --    42 C    0.972
    64   6 C    3.926 --    94 C    1.367    65 C    1.347   106 H    0.971
    65   6 C    3.901 --    64 C    1.347    66 C    1.229    69 N    1.169
    66   6 C    3.953 --    67 C    1.596    65 C    1.229   107 H    0.976
    67   6 C    3.959 --    66 C    1.596    68 C    1.234   108 H    0.974
    68   6 C    3.896 --    70 C    1.301    67 C    1.234    69 N    1.179
    69   7 N    3.470 --    68 C    1.179    65 C    1.169   109 H    0.873
    70   6 C    3.938 --    71 C    1.334    68 C    1.301    97 C    1.032
    71   6 C    3.914 --    70 C    1.334    74 N    1.286    72 C    1.124
    72   6 C    3.965 --    73 C    1.711    71 C    1.124   110 H    0.973
    73   6 C    3.964 --    72 C    1.711    75 C    1.127   111 H    0.974
    74   7 N    3.022 --    75 C    1.344    71 C    1.286
    75   6 C    3.907 --    74 N    1.344    76 C    1.253    73 C    1.127
    76   6 C    3.937 --    75 C    1.253    77 C    1.252   132 C    1.192
    77   6 C    3.884 --    76 C    1.252    78 C    1.249    96 N    1.189
    78   6 C    3.959 --    79 C    1.583    77 C    1.249   112 H    0.975
    79   6 C    3.954 --    78 C    1.583    80 C    1.240   113 H    0.974
    80   6 C    3.898 --    81 C    1.307    79 C    1.240    96 N    1.167
    81   6 C    3.924 --    91 C    1.319    80 C    1.307    82 C    1.035
    82   6 C    3.986 --    90 C    1.385    83 C    1.383    81 C    1.035
    83   6 C    3.985 --    84 C    1.465    82 C    1.383   114 H    0.972
                            89 C    0.102
    84   6 C    3.990 --    83 C    1.465    85 C    1.384   115 H    0.968
                            90 C    0.102
    85   6 C    3.981 --    89 C    1.388    84 C    1.384    86 C    1.010
    86   6 C    3.835 --    88 O    1.689    87 O    1.088    85 C    1.010
    87   8 O    2.096 --    86 C    1.088   116 H    0.838    88 O    0.128
    88   8 O    1.957 --    86 C    1.689    87 O    0.128
    89   6 C    3.991 --    90 C    1.462    85 C    1.388   117 H    0.970
                            83 C    0.102
    90   6 C    3.986 --    89 C    1.462    82 C    1.385   118 H    0.972
                            84 C    0.102
    91   6 C    3.929 --    81 C    1.319    95 N    1.318    92 C    1.117
    92   6 C    3.967 --    93 C    1.723    91 C    1.117   119 H    0.973
    93   6 C    3.966 --    92 C    1.723    94 C    1.116   120 H    0.976
    94   6 C    3.928 --    64 C    1.367    95 N    1.299    93 C    1.116
    95   7 N    3.012 --    91 C    1.318    94 C    1.299
    96   7 N    3.474 --    77 C    1.189    80 C    1.167   121 H    0.873
    97   6 C    3.986 --    98 C    1.386   105 C    1.384    70 C    1.032
    98   6 C    3.987 --    99 C    1.462    97 C    1.386   122 H    0.972
                           104 C    0.102
    99   6 C    3.991 --    98 C    1.462   100 C    1.388   123 H    0.970
                           105 C    0.102
   100   6 C    3.982 --    99 C    1.388   104 C    1.385   101 C    1.010
   101   6 C    3.836 --   103 O    1.690   102 O    1.088   100 C    1.010
   102   8 O    2.096 --   101 C    1.088   124 H    0.838   103 O    0.128
   103   8 O    1.958 --   101 C    1.690   102 O    0.128
   104   6 C    3.990 --   105 C    1.465   100 C    1.385   125 H    0.968
                            98 C    0.102
   105   6 C    3.987 --   104 C    1.465    97 C    1.384   126 H    0.972
                            99 C    0.102
   106   1 H    1.002 --    64 C    0.971
   107   1 H    0.997 --    66 C    0.976
   108   1 H    1.004 --    67 C    0.974
   109   1 H    0.986 --    69 N    0.873
   110   1 H    1.004 --    72 C    0.973
   111   1 H    1.003 --    73 C    0.974
   112   1 H    1.002 --    78 C    0.975
   113   1 H    1.004 --    79 C    0.974
   114   1 H    1.004 --    83 C    0.972
   115   1 H    1.005 --    84 C    0.968
   116   1 H    0.873 --    87 O    0.838
   117   1 H    1.005 --    89 C    0.970
   118   1 H    1.004 --    90 C    0.972
   119   1 H    1.004 --    92 C    0.973
   120   1 H    0.998 --    93 C    0.976
   121   1 H    0.987 --    96 N    0.873
   122   1 H    1.004 --    98 C    0.972
   123   1 H    1.005 --    99 C    0.970
   124   1 H    0.873 --   102 O    0.838
   125   1 H    1.005 --   104 C    0.968
   126   1 H    1.004 --   105 C    0.972
   127   6 C    3.925 --   128 C    2.367   131 C    1.336   130 C    0.190
   128   6 C    3.925 --   127 C    2.367   129 C    1.336   132 C    0.190
   129   6 C    3.932 --   130 C    2.448   128 C    1.336
   130   6 C    3.891 --   129 C    2.448    13 C    1.192   127 C    0.190
   131   6 C    3.932 --   132 C    2.448   127 C    1.336
   132   6 C    3.891 --   131 C    2.448    76 C    1.192   128 C    0.190
 ---------------------------------------------------------------------------

           -------------------------------------------------
          | TOTAL ENERGY             -242.047308489499 Eh   |
          | GRADIENT NORM               0.000409507204 Eh/α |
          | HOMO-LUMO GAP               1.025408962408 eV   |
           -------------------------------------------------

 * finished run on 2022/07/30 at 15:20:41.623
