   * xtb version 6.5.1 (b24c23e) compiled by 'conda@728c89f4b128' on 2022-07-12
          program call               : xtb Fe_DHP_C6_2.xyz --gfn 1 --opt -T 48

   ID    Z sym.   atoms
    1   26 Fe     1, 59
    2    6 C      2-6, 8-11, 13-17, 19-24, 26-29, 31-36, 60-64, 66-69, 71-75,
                  77-82, 84-87, 89-94, 117-122
    3    7 N      7, 12, 18, 25, 30, 37, 65, 70, 76, 83, 88, 95
    4    1 H      38-58, 96-116
########################################################################
[WARNING] Please study the warnings concerning your input carefully
-1- prog_main_parseArguments: Unknown option '-T' provided
########################################################################

          :  Hamiltonian                  GFN1-xTB          :
 * total energy  :  -203.8739241 Eh     change       -0.7051426E-10 Eh
 * total energy  :  -205.8013672 Eh     change       -0.1927443E+01 Eh
 * total energy  :  -206.0088657 Eh     change       -0.2074985E+00 Eh
 * total energy  :  -206.0945473 Eh     change       -0.8568167E-01 Eh
 * total energy  :  -206.1483634 Eh     change       -0.5381611E-01 Eh
 * total energy  :  -206.1733764 Eh     change       -0.2501295E-01 Eh
 * total energy  :  -206.1902500 Eh     change       -0.1687360E-01 Eh
 * total energy  :  -206.2023070 Eh     change       -0.1205703E-01 Eh
 * total energy  :  -206.2109485 Eh     change       -0.8641453E-02 Eh
 * total energy  :  -206.2174170 Eh     change       -0.6468510E-02 Eh
 * total energy  :  -206.2387522 Eh     change       -0.6090928E-04 Eh
 * total energy  :  -206.2388192 Eh     change       -0.6696762E-04 Eh
 * total energy  :  -206.2388733 Eh     change       -0.5409898E-04 Eh
 * total energy  :  -206.2389041 Eh     change       -0.3077355E-04 Eh
 * total energy  :  -206.2389221 Eh     change       -0.1800521E-04 Eh
 * total energy  :  -206.2389383 Eh     change       -0.1621575E-04 Eh
 * total energy  :  -206.2389566 Eh     change       -0.1829040E-04 Eh
 * total energy  :  -206.2389724 Eh     change       -0.1586203E-04 Eh
 * total energy  :  -206.2389769 Eh     change       -0.4456334E-05 Eh
   *** GEOMETRY OPTIMIZATION CONVERGED AFTER 44 ITERATIONS ***

 final structure:
================
122
 xtb: 6.5.1 (b24c23e)
Fe          12.65710499475758       -0.04460022757164       -0.02073031342884
C            9.27483278195088       -0.05554122606094       -0.16604429788345
C            9.91894814894861       -1.26748638526429       -0.02270447551742
C            9.23731307709677       -2.52047902710801        0.10128642192166
C           10.19086953739437       -3.48190805900898        0.10713245796425
C           11.45412911352873       -2.81522258200846       -0.02920076940289
N           11.27545651877376       -1.45791746097310       -0.05826374586588
C           12.67139727565511       -3.47146384115376       -0.17685506446365
C           12.68026524935379       -4.94988602810033       -0.26476417646713
C           12.02343140653184       -5.59811036266208       -1.24087940203844
C           12.01097431691402       -7.09862930563392       -1.35419302209288
N           13.04778850863688       -7.70395864185393       -0.51710550476123
C           13.56491926868760       -7.04049836941893        0.56038572501623
C           13.44159875238152       -5.70841394146132        0.71426323353372
C           13.88229390222993       -2.79573703307424       -0.25951210493776
C           15.14543341027859       -3.43729731056741       -0.47266880096726
C           16.09219583958983       -2.47043658926499       -0.40398642495342
N           14.05635989664209       -1.44170185896138       -0.10624289565105
C           15.40488346692667       -1.24189727620117       -0.15633306556116
C           16.06105281208904       -0.03062373070062        0.08856053946897
C           15.38054651249483        1.17245260238336        0.30558464814495
C           16.04053009285750        2.40333209692021        0.60970937073598
C           15.08169879850528        3.36020549839135        0.63989556782143
C           13.83981783050087        2.71103982039096        0.34140670150033
N           14.03515425389705        1.36038074909458        0.18229283889223
C           12.63341414117333        3.37974544086105        0.17924367714837
C           12.62584461598934        4.85791832099646        0.27637438350447
C           11.89996537652178        5.49685387414580        1.20849360541780
C           11.86769676173265        6.99633135844798        1.33070253040615
N           12.92164853495554        7.62180489670825        0.53049805737968
C           13.52245820674797        6.96104831342511       -0.50287484068422
C           13.43930159385957        5.62515363727976       -0.65214663381029
C           11.43667514491976        2.71853396575335       -0.07482288915301
C           10.18594927023940        3.37945426561409       -0.31455292433824
C            9.24356461765291        2.41198104416312       -0.41275050462531
C            9.92030632009165        1.16160138642396       -0.24311028303494
N           11.26609783995782        1.36013382311657       -0.07848062036326
H            8.19172683056109       -0.05972735823702       -0.21713388555627
H            8.16680964274681       -2.63046852077587        0.17459334465662
H           10.06264665407969       -4.54826957363939        0.19979223550192
H           11.45810399698404       -5.06628933670248       -1.99716029551966
H           12.19119864294137       -7.40224387699343       -2.39470878981539
H           11.01856553571268       -7.49392336603915       -1.06806126836478
H           13.00091567517944       -8.71011851193699       -0.45575947590322
H           14.14418516283447       -7.65709883620743        1.24012935943697
H           13.89550762539498       -5.19557059978175        1.55020541834751
H           15.28088308444291       -4.49139990105432       -0.65284413611099
H           17.16126746887424       -2.56596891881818       -0.50625014659001
H           17.10101765098793        2.50616527069382        0.77507535294385
H           15.19511443909992        4.41253084679819        0.84417109434544
H           11.28960915359722        4.95716148014353        1.92311768142223
H           12.01060369436132        7.29449069041865        2.37911098648777
H           10.88046207002021        7.38223035097287        1.01645460558669
H           12.85592741771270        8.62602241794658        0.45911150539519
H           14.12785672438010        7.58565817568053       -1.15186011209587
H           13.95759729438295        5.11666626363781       -1.45250918345040
H           10.05861827519252        4.44650159011629       -0.40067882129128
H            8.18359760345669        2.51641265574873       -0.58316458728830
Fe          28.63307137026771        0.04766568491181       -0.01096960828061
C           32.01538743390992        0.08851490981150       -0.14982493460927
C           31.37157192549682        1.24162217300682        0.25028621665461
C           32.05345735713203        2.43846177787091        0.64091727529830
C           31.10012985681232        3.37647704784148        0.85294277640291
C           29.83676977141338        2.75508854990068        0.57604431911366
N           30.01512639709891        1.43569661917993        0.25603221078520
C           28.61969300999691        3.42808369436827        0.57234812412054
C           28.61140168601296        4.89091252263651        0.80394643217427
C           29.26883714838052        5.73317303424212       -0.01018253321106
C           29.28219628718711        7.22301593462210        0.20131112660029
N           28.24524820656876        7.63514986384260        1.14841231286819
C           27.72763486142248        6.75619663089284        2.05844014535775
C           27.85025415774603        5.42205559522065        1.92288484303181
C           27.40871363336483        2.78623285441431        0.34594250766206
C           26.14580600631576        3.45901513155098        0.27515370005419
C           25.19882469867665        2.50030834841205        0.13373014229758
N           27.23431129924677        1.43095698703486        0.20438432093828
C           25.88573714491015        1.24702820090839        0.11183412900691
C           25.22906386484481        0.01174870894946        0.09063154583061
C           25.90908999615316       -1.21020555816620        0.04489125911955
C           25.24872327640211       -2.47746688944577        0.07795044234148
C           26.20739071277821       -3.41886246112795       -0.09700183419772
C           27.44951490980474       -2.72117363301234       -0.24901910905110
N           27.25447356741424       -1.36774024119433       -0.11517912529648
C           28.65585891727251       -3.33985827868343       -0.55042256827509
C           28.66281907972542       -4.80443414912958       -0.77273182306271
C           29.38818225788066       -5.62897883774795        0.00054336376347
C           29.41946082900905       -7.11977928177549       -0.20182489822151
N           28.36561399294822       -7.55828442988505       -1.11805840694398
C           27.76517801401575       -6.69073605488345       -1.98536410628129
C           27.84903514893210       -5.35399698377650       -1.84429931965809
C           29.85281939893682       -2.63987359237809       -0.65639145527842
C           31.10349079606181       -3.23439332078139       -1.03185410061014
C           32.04612556815262       -2.26864490999621       -0.92004425603186
C           31.36960104005563       -1.08351749466068       -0.48645104474777
N           30.02370580824215       -1.31232702896312       -0.36863308221701
H           33.09851386693835        0.10315797607269       -0.19849994176081
H           33.12395474007788        2.52978297556844        0.73656096336907
H           31.22860568534327        4.39795020245902        1.17269937389469
H           29.83406577525436        5.37574869987369       -0.86291477282763
H           29.10273672329399        7.74310146521219       -0.74980679570480
H           30.27466820669515        7.54695936997523        0.56609053731203
H           28.29256937606097        8.60468475348095        1.42424918635706
H           27.14852944388265        7.21287761697891        2.85460409751631
H           27.39595808552975        4.74202123689775        2.62929229135587
H           26.01071533572839        4.52724561810153        0.32597224578398
H           24.12981162253765        2.61582154117828        0.05384211372148
H           24.18815672607061       -2.61315584267534        0.21696670853202
H           26.09365048048203       -4.49048385315308       -0.12275054689591
H           29.99874872714138       -5.25562522974781        0.81436550461246
H           29.27575597946102       -7.63581416931283        0.75815299447314
H           30.40663755132626       -7.43000509709050       -0.59109930881041
H           28.43089476249082       -8.52377126990007       -1.40342523328817
H           27.15951180340195       -7.16109845445780       -2.75331702753734
H           27.33101744583885       -4.68523284824983       -2.51674309701586
H           31.23058862646630       -4.25820710346399       -1.34469603648810
H           33.10613701647389       -2.33442080603403       -1.10852357212188
C           21.25959866626268       -0.01840180626934        0.14014539000408
C           20.03052229891986       -0.01735426759759        0.14103326017630
C           18.68765959388905       -0.02339161808506        0.13207263514522
C           17.46324840312244       -0.02255707533019        0.11780316012027
C           22.60245144322462       -0.00969781835488        0.13128819131406
C           23.82685535009604       -0.00216709912014        0.11694981029599

          :  Hamiltonian                  GFN1-xTB          :
         :: total energy            -206.238976892163 Eh    ::
         :: gradient norm              0.000571553618 Eh/a0 ::
         :: HOMO-LUMO gap              0.073428491881 eV    ::
         :: SCC energy              -209.494734075681 Eh    ::
         :: repulsion energy           3.362123796596 Eh    ::

    * Orbital Energies and Occupations

         #    Occupation            Energy/Eh            Energy/eV
      -------------------------------------------------------------
         1        2.0000           -0.7876242             -21.4323
       ...           ...                  ...                  ...
       179        2.0000           -0.3846945             -10.4681
       180        2.0000           -0.3846433             -10.4667
       181        1.9990           -0.3762844             -10.2392
       182        1.9928           -0.3743757             -10.1873
       183        1.9928           -0.3743724             -10.1872
       184        1.9839           -0.3736081             -10.1664
       185        1.9838           -0.3736020             -10.1662
       186        1.9647           -0.3728535             -10.1459
       187        1.9646           -0.3728532             -10.1459
       188        1.9605           -0.3727452             -10.1429
       189        1.9605           -0.3727449             -10.1429
       190        1.9508           -0.3725329             -10.1371
       191        1.5607           -0.3702407             -10.0748 (HOMO)
       192        0.3437           -0.3675422             -10.0013 (LUMO)
       193        0.3423           -0.3675376             -10.0012
       194                         -0.3269065              -8.8956
       195                         -0.3156448              -8.5891
       196                         -0.3156441              -8.5891
       197                         -0.3144658              -8.5571
       198                         -0.2892094              -7.8698
       199                         -0.2860631              -7.7842
       200                         -0.2860372              -7.7835
       201                         -0.2829545              -7.6996
       202                         -0.2764415              -7.5224
       ...                                ...                  ...
       414                          1.5879804              43.2111
      -------------------------------------------------------------
                  HL-Gap            0.0026984 Eh            0.0734 eV

Wiberg/Mayer (AO) data.
largest (>0.10) Wiberg bond orders for each atom

     #   Z sym  total        # sym  WBO       # sym  WBO       # sym  WBO
 ---------------------------------------------------------------------------
     1  26 Fe   3.107 --     7 N    0.663    37 N    0.662    25 N    0.658
                            18 N    0.657
     2   6 C    3.924 --    36 C    1.363     3 C    1.363    38 H    0.971
     3   6 C    3.928 --     2 C    1.363     7 N    1.210     4 C    1.174
     4   6 C    3.959 --     5 C    1.648     3 C    1.174    39 H    0.975
     5   6 C    3.963 --     4 C    1.648     6 C    1.175    40 H    0.973
     6   6 C    3.923 --     8 C    1.316     7 N    1.223     5 C    1.175
     7   7 N    3.377 --     6 C    1.223     3 C    1.210     1 Fe   0.663
     8   6 C    3.929 --    15 C    1.327     6 C    1.316     9 C    1.029
     9   6 C    3.982 --    10 C    1.749    14 C    1.106     8 C    1.029
    10   6 C    3.942 --     9 C    1.749    11 C    1.015    41 H    0.971
    11   6 C    3.957 --    10 C    1.015    42 H    0.974    43 H    0.963
                            12 N    0.948
    12   7 N    3.242 --    13 C    1.172    11 C    0.948    44 H    0.926
                            14 C    0.119
    13   6 C    3.946 --    14 C    1.673    12 N    1.172    45 H    0.970
    14   6 C    3.943 --    13 C    1.673     9 C    1.106    46 H    0.973
                            12 N    0.119
    15   6 C    3.917 --     8 C    1.327    18 N    1.205    16 C    1.181
    16   6 C    3.958 --    17 C    1.638    15 C    1.181    47 H    0.972
    17   6 C    3.961 --    16 C    1.638    19 C    1.188    48 H    0.974
    18   7 N    3.380 --    19 C    1.241    15 C    1.205     1 Fe   0.657
    19   6 C    3.905 --    20 C    1.256    18 N    1.241    17 C    1.188
    20   6 C    3.929 --    19 C    1.256    21 C    1.256   120 C    1.195
    21   6 C    3.905 --    20 C    1.256    25 N    1.241    22 C    1.188
    22   6 C    3.961 --    23 C    1.638    21 C    1.188    49 H    0.974
    23   6 C    3.958 --    22 C    1.638    24 C    1.181    50 H    0.972
    24   6 C    3.917 --    26 C    1.329    25 N    1.204    23 C    1.181
    25   7 N    3.380 --    21 C    1.241    24 C    1.204     1 Fe   0.658
    26   6 C    3.929 --    24 C    1.329    33 C    1.316    27 C    1.028
    27   6 C    3.982 --    28 C    1.749    32 C    1.107    26 C    1.028
    28   6 C    3.941 --    27 C    1.749    29 C    1.015    51 H    0.971
    29   6 C    3.956 --    28 C    1.015    52 H    0.973    53 H    0.964
                            30 N    0.947
    30   7 N    3.245 --    31 C    1.175    29 C    0.947    54 H    0.925
                            32 C    0.120
    31   6 C    3.946 --    32 C    1.670    30 N    1.175    55 H    0.970
    32   6 C    3.942 --    31 C    1.670    27 C    1.107    56 H    0.973
                            30 N    0.120
    33   6 C    3.923 --    26 C    1.316    37 N    1.224    34 C    1.175
    34   6 C    3.963 --    35 C    1.648    33 C    1.175    57 H    0.974
    35   6 C    3.960 --    34 C    1.648    36 C    1.174    58 H    0.975
    36   6 C    3.928 --     2 C    1.363    37 N    1.210    35 C    1.174
    37   7 N    3.376 --    33 C    1.224    36 C    1.210     1 Fe   0.662
    38   1 H    1.001 --     2 C    0.971
    39   1 H    0.998 --     4 C    0.975
    40   1 H    1.006 --     5 C    0.973
    41   1 H    1.003 --    10 C    0.971
    42   1 H    1.014 --    11 C    0.974
    43   1 H    1.002 --    11 C    0.963
    44   1 H    0.961 --    12 N    0.926
    45   1 H    1.001 --    13 C    0.970
    46   1 H    1.003 --    14 C    0.973
    47   1 H    1.005 --    16 C    0.972
    48   1 H    1.002 --    17 C    0.974
    49   1 H    1.002 --    22 C    0.974
    50   1 H    1.005 --    23 C    0.972
    51   1 H    1.003 --    28 C    0.971
    52   1 H    1.014 --    29 C    0.973
    53   1 H    1.002 --    29 C    0.964
    54   1 H    0.961 --    30 N    0.925
    55   1 H    1.001 --    31 C    0.970
    56   1 H    1.003 --    32 C    0.973
    57   1 H    1.006 --    34 C    0.974
    58   1 H    0.998 --    35 C    0.975
    59  26 Fe   3.107 --    65 N    0.663    95 N    0.662    83 N    0.658
                            76 N    0.657
    60   6 C    3.924 --    94 C    1.363    61 C    1.363    96 H    0.971
    61   6 C    3.928 --    60 C    1.363    65 N    1.210    62 C    1.174
    62   6 C    3.959 --    63 C    1.648    61 C    1.174    97 H    0.975
    63   6 C    3.963 --    62 C    1.648    64 C    1.175    98 H    0.973
    64   6 C    3.923 --    66 C    1.316    65 N    1.223    63 C    1.175
    65   7 N    3.377 --    64 C    1.223    61 C    1.210    59 Fe   0.663
    66   6 C    3.929 --    73 C    1.327    64 C    1.316    67 C    1.029
    67   6 C    3.982 --    68 C    1.749    72 C    1.106    66 C    1.029
    68   6 C    3.942 --    67 C    1.749    69 C    1.015    99 H    0.971
    69   6 C    3.957 --    68 C    1.015   100 H    0.974   101 H    0.963
                            70 N    0.948
    70   7 N    3.242 --    71 C    1.172    69 C    0.948   102 H    0.926
                            72 C    0.119
    71   6 C    3.946 --    72 C    1.673    70 N    1.172   103 H    0.970
    72   6 C    3.943 --    71 C    1.673    67 C    1.106   104 H    0.973
                            70 N    0.119
    73   6 C    3.917 --    66 C    1.327    76 N    1.205    74 C    1.181
    74   6 C    3.958 --    75 C    1.638    73 C    1.181   105 H    0.972
    75   6 C    3.961 --    74 C    1.638    77 C    1.188   106 H    0.974
    76   7 N    3.380 --    77 C    1.240    73 C    1.205    59 Fe   0.657
    77   6 C    3.905 --    78 C    1.256    76 N    1.240    75 C    1.188
    78   6 C    3.929 --    77 C    1.256    79 C    1.256   122 C    1.195
    79   6 C    3.905 --    78 C    1.256    83 N    1.241    80 C    1.188
    80   6 C    3.961 --    81 C    1.638    79 C    1.188   107 H    0.974
    81   6 C    3.958 --    80 C    1.638    82 C    1.181   108 H    0.972
    82   6 C    3.917 --    84 C    1.329    83 N    1.204    81 C    1.181
    83   7 N    3.380 --    79 C    1.241    82 C    1.204    59 Fe   0.658
    84   6 C    3.929 --    82 C    1.329    91 C    1.316    85 C    1.028
    85   6 C    3.982 --    86 C    1.749    90 C    1.107    84 C    1.028
    86   6 C    3.941 --    85 C    1.749    87 C    1.015   109 H    0.971
    87   6 C    3.956 --    86 C    1.015   110 H    0.973   111 H    0.964
                            88 N    0.947
    88   7 N    3.245 --    89 C    1.175    87 C    0.947   112 H    0.925
                            90 C    0.120
    89   6 C    3.946 --    90 C    1.670    88 N    1.175   113 H    0.970
    90   6 C    3.942 --    89 C    1.670    85 C    1.107   114 H    0.973
                            88 N    0.120
    91   6 C    3.923 --    84 C    1.316    95 N    1.224    92 C    1.175
    92   6 C    3.963 --    93 C    1.648    91 C    1.175   115 H    0.974
    93   6 C    3.960 --    92 C    1.648    94 C    1.174   116 H    0.975
    94   6 C    3.928 --    60 C    1.363    95 N    1.210    93 C    1.174
    95   7 N    3.376 --    91 C    1.224    94 C    1.210    59 Fe   0.662
    96   1 H    1.001 --    60 C    0.971
    97   1 H    0.998 --    62 C    0.975
    98   1 H    1.006 --    63 C    0.973
    99   1 H    1.003 --    68 C    0.971
   100   1 H    1.014 --    69 C    0.974
   101   1 H    1.002 --    69 C    0.963
   102   1 H    0.961 --    70 N    0.926
   103   1 H    1.001 --    71 C    0.970
   104   1 H    1.003 --    72 C    0.973
   105   1 H    1.005 --    74 C    0.972
   106   1 H    1.002 --    75 C    0.974
   107   1 H    1.002 --    80 C    0.974
   108   1 H    1.005 --    81 C    0.972
   109   1 H    1.003 --    86 C    0.971
   110   1 H    1.014 --    87 C    0.973
   111   1 H    1.002 --    87 C    0.964
   112   1 H    0.961 --    88 N    0.925
   113   1 H    1.001 --    89 C    0.970
   114   1 H    1.003 --    90 C    0.973
   115   1 H    1.006 --    92 C    0.974
   116   1 H    0.998 --    93 C    0.975
   117   6 C    3.921 --   118 C    2.357   121 C    1.342   120 C    0.189
   118   6 C    3.921 --   117 C    2.357   119 C    1.342   122 C    0.189
   119   6 C    3.930 --   120 C    2.439   118 C    1.342
   120   6 C    3.884 --   119 C    2.439    20 C    1.195   117 C    0.189
   121   6 C    3.930 --   122 C    2.439   117 C    1.342
   122   6 C    3.884 --   121 C    2.439    78 C    1.195   118 C    0.189
 ---------------------------------------------------------------------------

           -------------------------------------------------
          | TOTAL ENERGY             -206.238976892163 Eh   |
          | GRADIENT NORM               0.000571553618 Eh/α |
          | HOMO-LUMO GAP               0.073428491881 eV   |
           -------------------------------------------------

 * finished run on 2022/07/29 at 19:52:32.115
