   * xtb version 6.5.1 (b24c23e) compiled by 'conda@728c89f4b128' on 2022-07-12
          program call               : xtb Co_BSA_C2_2.xyz --gfn 1 --opt -T 48

   ID    Z sym.   atoms
    1   27 Co     1, 65
    2    6 C      2-6, 8-12, 17-21, 23-28, 30-34, 39-44, 66-70, 72-76, 81-85,
                  87-92, 94-98, 103-108, 129, 130
    3    7 N      7, 22, 29, 45, 71, 86, 93, 109
    4   16 S      13, 35, 77, 99
    5    8 O      14-16, 36-38, 78-80, 100-102
    6    1 H      46-64, 110-128
########################################################################
[WARNING] Please study the warnings concerning your input carefully
-1- prog_main_parseArguments: Unknown option '-T' provided
########################################################################

          :  Hamiltonian                  GFN1-xTB          :
 * total energy  :  -263.0898934 Eh     change       -0.6261814E-08 Eh
 * total energy  :  -263.1994923 Eh     change       -0.1095989E+00 Eh
 * total energy  :  -263.2729269 Eh     change       -0.7343461E-01 Eh
 * total energy  :  -263.2932619 Eh     change       -0.2033502E-01 Eh
 * total energy  :  -263.3069252 Eh     change       -0.1366332E-01 Eh
 * total energy  :  -263.3156084 Eh     change       -0.8683186E-02 Eh
 * total energy  :  -263.3217552 Eh     change       -0.6146756E-02 Eh
 * total energy  :  -263.3257671 Eh     change       -0.4011939E-02 Eh
 * total energy  :  -263.3280010 Eh     change       -0.2233907E-02 Eh
 * total energy  :  -263.3291574 Eh     change       -0.1156408E-02 Eh
 * total energy  :  -263.3352234 Eh     change       -0.4803378E-04 Eh
 * total energy  :  -263.3352690 Eh     change       -0.4560052E-04 Eh
 * total energy  :  -263.3352994 Eh     change       -0.3038412E-04 Eh
 * total energy  :  -263.3353108 Eh     change       -0.1143087E-04 Eh
 * total energy  :  -263.3353360 Eh     change       -0.2517837E-04 Eh
 * total energy  :  -263.3353461 Eh     change       -0.1006033E-04 Eh
 * total energy  :  -263.3353535 Eh     change       -0.7454621E-05 Eh
 * total energy  :  -263.3353605 Eh     change       -0.6952117E-05 Eh
 * total energy  :  -263.3353636 Eh     change       -0.3103552E-05 Eh
   *** GEOMETRY OPTIMIZATION CONVERGED AFTER 44 ITERATIONS ***

 final structure:
================
130
 xtb: 6.5.1 (b24c23e)
Co          18.33290616270831        0.00266555070075        0.05278537842475
C           14.96474802810612        0.13581477245277        0.10775043885319
C           15.61844265253677       -0.44002942329000        1.17641508405859
C           14.95701026249073       -1.03038825338593        2.30016374639316
C           15.91433254753612       -1.29232908589118        3.22105000019798
C           17.15827402250856       -0.84817228703885        2.66300701261277
N           16.97412295187156       -0.39056628021667        1.38373283114565
C           18.35147725218290       -0.76859460331531        3.36906442791268
C           18.36043567494485       -1.10523178256872        4.81033247227152
C           17.55482155589726       -0.39436687536258        5.70380187137207
C           17.56950771675380       -0.69508471035267        7.05559054573208
C           18.39101987608712       -1.71834104978500        7.50057805238283
S           18.42443083704194       -2.09275927711993        9.21299778725528
O           18.08824513919354       -0.93889834065357        9.99391134216786
O           17.16305157751684       -3.11470992995620        9.25545041841666
O           19.60976541690202       -2.82492523541592        9.54936227601872
C           19.19890921673719       -2.44245261614824        6.63915017329983
C           19.18161561423443       -2.12875970130007        5.29009855970583
C           19.53567003719064       -0.37214465971846        2.76441386027183
C           20.77963620119551       -0.20737310862305        3.45464049567886
C           21.72691744805401       -0.00325221900446        2.50772498231265
N           19.71067502063307       -0.19244302260920        1.41192249728202
C           21.05899952482375       -0.03592344023531        1.24521585055298
C           21.72236639810700       -0.04409331758876        0.01719342551061
C           21.02887978925868       -0.03701725282297       -1.19470919592869
C           21.66149394543016       -0.11563269628361       -2.47286838154703
C           20.69983944705152        0.11981984736596       -3.39827880457599
C           19.48380140001961        0.35232783456955       -2.67876454282010
N           19.68666753617949        0.18471412756311       -1.32882143821726
C           18.30706711922413        0.80968129335439       -3.25472760592102
C           18.29916005882779        1.14423977823798       -4.69636302766980
C           17.42533216400757        0.49108052831901       -5.56892198379862
C           17.42272583270117        0.79598759718493       -6.92032034661671
C           18.29857628433952        1.76275408151502       -7.38592650463793
S           18.29632208923088        2.16219878319236       -9.09452336333999
O           18.71691039898602        3.51679095181068       -9.30666518541852
O           19.51215580524214        1.20285872264107       -9.57949990692430
O           17.08120161557180        1.71284449391275       -9.70291410832215
C           19.17102741524560        2.43346844212486       -6.54387003237128
C           19.16947596363016        2.11707772264862       -5.19573009181019
C           17.14125353049433        0.96306185877385       -2.51606010061863
C           15.91138416159672        1.48047855068460       -3.04168959186066
C           14.96793079546889        1.28838955350392       -2.09027845155467
C           15.62380774553668        0.66466877624329       -0.98113382999668
N           16.96863321858608        0.53432759029092       -1.22487906903870
H           13.88201596921151        0.17214513079035        0.12337987832156
H           13.89502746923695       -1.20693857556927        2.36056201908096
H           15.80243569096875       -1.74167898545665        4.19447997435419
H           16.92959798806654        0.41116538224971        5.33682161857256
H           16.96022067197065       -0.14143703719209        7.75889507505498
H           17.00336664862826       -3.41010299695956       10.16014615437429
H           19.83194844928902       -3.23308318088561        7.02197201145980
H           19.79947527835903       -2.68882164399858        4.59792479588521
H           20.90135637410736       -0.24492354177198        4.52486170426346
H           22.78581601665747        0.15188019186244        2.63701161736067
H           22.70806761238229       -0.32305545028528       -2.62697862395734
H           20.79472283857088        0.13536630179909       -4.47177685496833
H           16.75653982386384       -0.27126451792999       -5.18675620147235
H           16.75107847860014        0.29443009772997       -7.60564486861365
H           19.93609859435466        1.57245490304933      -10.36384271443769
H           19.83340903903026        3.19324253314997       -6.93942983190391
H           19.83573105580265        2.63815615656050       -4.51813606190175
H           15.79869742099120        1.92774912082946       -4.01590551334579
H           13.91769549984508        1.53055031717645       -2.12102782932575
Co          29.14083039294039        0.02183138865714       -0.04802200804586
C           32.50901714169699        0.16586584528048       -0.04983876713603
C           31.85532820445903        0.02569144664392       -1.25565731114902
C           32.51680436701965       -0.10762171990852       -2.51799789096852
C           31.55950786835251       -0.01077213995201       -3.47052610132285
C           30.31553599329126        0.19567609823935       -2.78789233234288
N           30.49965547407311        0.14826230459033       -1.43005952903924
C           29.12230269048280        0.53028590686936       -3.41463327664380
C           29.11329918833178        0.74972312542900       -4.87833732226772
C           29.91867429113896        1.74047107123857       -5.44615143936350
C           29.90388906730841        1.96021685518976       -6.81344001508657
C           29.08253064840703        1.17343943583762       -7.60483152049717
S           29.04892872094846        1.45793039012789       -9.33446435284394
O           29.38471815063776        2.81872192539353       -9.63402048021698
O           30.31053871168088        0.52426990234393       -9.75145904810167
O           27.86370726951291        0.90143312258274       -9.91737144237663
C           28.27489319230302        0.18219979049717       -7.07168369159199
C           28.29227858812005       -0.02447381526211       -5.70214974907759
C           27.93807431729606        0.67522006328147       -2.70633745263075
C           26.69409927308313        1.08318178443232       -3.28694799075635
C           25.74680239240426        0.92309506430026       -2.33162017125098
N           27.76305891541128        0.34269057098403       -1.38310521334486
C           26.41471946110778        0.42648910323376       -1.17042162544063
C           25.75132751802566       -0.03464246171910       -0.03225407288025
C           26.44478551420174       -0.47563940393544        1.09660436509096
C           25.81212429939873       -1.02069303148385        2.25536577203618
C           26.77375930276176       -1.14369617333654        3.20232493351244
C           27.98983147288870       -0.66199296442216        2.61954591633790
N           27.78699717932518       -0.31915288951695        1.30314525646331
C           29.16659331388640       -0.44981878901622        3.32368463127491
C           29.17450520998676       -0.67141880128121        4.78694940164191
C           30.04807173192847       -1.60093591582581        5.35652458790230
C           30.05056727464977       -1.81682546291052        6.72497855709436
C           29.17489533998318       -1.09019654288533        7.51475139593731
S           29.17665747792953       -1.35040984488091        9.25005232885033
O           28.75601476557127       -0.16992276139462        9.94749480974854
O           27.96062971094483       -2.42074184451726        9.34679257518567
O           30.39162759211716       -1.99289304718095        9.64941721421378
C           28.30277101361773       -0.15555819814548        6.97999409907294
C           28.30442211760208        0.04844985358793        5.61034115511571
C           30.33244067590153       -0.03454251719810        2.69391957324355
C           31.56231895001466        0.25198068986428        3.37354624195452
C           32.50581421597374        0.42483687131433        2.41849841398710
C           31.84994883319296        0.25503838005391        1.15738284169702
N           30.50509234984909        0.04401338303638        1.33569590457126
H           33.59175231580607        0.20531503677017       -0.05092455170821
H           33.57879756281007       -0.24931523843735       -2.63931740975624
H           31.67144586701488       -0.06858930421211       -4.54109930275878
H           30.54377802716629        2.35368286994235       -4.80765478872282
H           30.51298148939105        2.73459924439191       -7.26258629943261
H           30.47017771105181        0.58401204674664      -10.70128910221822
H           27.64196858941440       -0.41131649436661       -7.71939674501355
H           27.67460785004388       -0.80070057918092       -5.26571053472316
H           26.57238759910983        1.44353760969564       -4.29537660585104
H           24.68789579476928        1.11495701243557       -2.39449527903386
H           24.76553285597149       -1.27029708240924        2.32196539695151
H           26.67883857968875       -1.52567566486173        4.20568196747628
H           30.71671124048648       -2.16837349377953        4.71978503319628
H           30.72196256227205       -2.53629679906167        7.17656026670724
H           27.53044787117192       -2.35949283189884       10.20852005647372
H           27.64059853110334        0.40458951184307        7.62824796525440
H           27.63843111926465        0.78319297154998        5.17312353541656
H           31.67496860332971        0.30772435455150        4.44408252231720
H           33.55606679742532        0.63840631134706        2.53656089464211
C           23.12874215391119       -0.05507445906876       -0.00090390424635
C           24.34495132721027       -0.05155196380586       -0.01952660118230

          :  Hamiltonian                  GFN1-xTB          :
         :: total energy            -263.335363566188 Eh    ::
         :: gradient norm              0.000486318304 Eh/a0 ::
         :: HOMO-LUMO gap              0.008143838956 eV    ::
         :: SCC energy              -266.727977652222 Eh    ::
         :: repulsion energy           3.513786935703 Eh    ::

    * Orbital Energies and Occupations

         #    Occupation            Energy/Eh            Energy/eV
      -------------------------------------------------------------
         1        2.0000           -1.0382015             -28.2509
       ...           ...                  ...                  ...
       216        2.0000           -0.4471703             -12.1681
       217        2.0000           -0.4471518             -12.1676
       218        2.0000           -0.4195426             -11.4163
       219        2.0000           -0.4162060             -11.3255
       220        2.0000           -0.4161259             -11.3234
       221        2.0000           -0.4154367             -11.3046
       222        2.0000           -0.4154190             -11.3041
       223        1.9998           -0.4118847             -11.2080
       224        1.9998           -0.4118811             -11.2079
       225        1.9997           -0.4117117             -11.2032
       226        1.9997           -0.4117085             -11.2032
       227        1.9121           -0.4062075             -11.0535
       228        1.1229           -0.4035163             -10.9802 (HOMO)
       229        0.9660           -0.4032171             -10.9721 (LUMO)
       230                         -0.3574979              -9.7280
       231                         -0.3494833              -9.5099
       232                         -0.3494712              -9.5096
       233                         -0.3411707              -9.2837
       234                         -0.3225291              -8.7765
       235                         -0.3191349              -8.6841
       236                         -0.3127027              -8.5091
       237                         -0.3123749              -8.5002
       238                         -0.3110127              -8.4631
       239                         -0.3109298              -8.4608
       ...                                ...                  ...
       474                          1.3254621              36.0677
      -------------------------------------------------------------
                  HL-Gap            0.0002993 Eh            0.0081 eV

Wiberg/Mayer (AO) data.
largest (>0.10) Wiberg bond orders for each atom

     #   Z sym  total        # sym  WBO       # sym  WBO       # sym  WBO
 ---------------------------------------------------------------------------
     1  27 Co   3.060 --    45 N    0.644     7 N    0.639    22 N    0.637
                            29 N    0.634
     2   6 C    3.931 --    44 C    1.367     3 C    1.364    46 H    0.969
     3   6 C    3.922 --     2 C    1.364     7 N    1.200     4 C    1.174
     4   6 C    3.960 --     5 C    1.649     3 C    1.174    47 H    0.975
     5   6 C    3.963 --     4 C    1.649     6 C    1.175    48 H    0.973
     6   6 C    3.921 --     8 C    1.318     7 N    1.212     5 C    1.175
     7   7 N    3.347 --     6 C    1.212     3 C    1.200     1 Co   0.639
     8   6 C    3.931 --    19 C    1.328     6 C    1.318     9 C    1.032
     9   6 C    3.986 --    18 C    1.390    10 C    1.389     8 C    1.032
    10   6 C    3.986 --    11 C    1.451     9 C    1.389    49 H    0.971
                            17 C    0.106
    11   6 C    3.989 --    10 C    1.451    12 C    1.406    50 H    0.967
                            18 C    0.106
    12   6 C    3.930 --    17 C    1.408    11 C    1.406    13 S    0.754
    13  16 S    5.265 --    16 O    1.720    14 O    1.719    15 O    1.013
                            12 C    0.754
    14   8 O    2.078 --    13 S    1.719    16 O    0.139
    15   8 O    2.088 --    13 S    1.013    51 H    0.827
    16   8 O    2.079 --    13 S    1.720    14 O    0.139
    17   6 C    3.989 --    18 C    1.449    12 C    1.408    52 H    0.967
                            10 C    0.106
    18   6 C    3.986 --    17 C    1.449     9 C    1.390    53 H    0.971
                            11 C    0.106
    19   6 C    3.917 --     8 C    1.328    22 N    1.196    20 C    1.181
    20   6 C    3.958 --    21 C    1.637    19 C    1.181    54 H    0.973
    21   6 C    3.962 --    20 C    1.637    23 C    1.189    55 H    0.972
    22   7 N    3.347 --    23 C    1.226    19 C    1.196     1 Co   0.637
    23   6 C    3.908 --    24 C    1.267    22 N    1.226    21 C    1.189
    24   6 C    3.935 --    23 C    1.267    25 C    1.264   129 C    1.176
    25   6 C    3.908 --    24 C    1.264    29 N    1.227    26 C    1.191
    26   6 C    3.962 --    27 C    1.635    25 C    1.191    56 H    0.972
    27   6 C    3.958 --    26 C    1.635    28 C    1.182    57 H    0.973
    28   6 C    3.917 --    30 C    1.327    29 N    1.196    27 C    1.182
    29   7 N    3.349 --    25 C    1.227    28 C    1.196     1 Co   0.634
    30   6 C    3.932 --    28 C    1.327    41 C    1.319    31 C    1.033
    31   6 C    3.986 --    32 C    1.391    40 C    1.388    30 C    1.033
    32   6 C    3.986 --    33 C    1.448    31 C    1.391    58 H    0.971
                            39 C    0.106
    33   6 C    3.989 --    32 C    1.448    34 C    1.409    59 H    0.966
                            40 C    0.106
    34   6 C    3.932 --    33 C    1.409    39 C    1.406    35 S    0.753
    35  16 S    5.273 --    38 O    1.732    36 O    1.712    37 O    1.018
                            34 C    0.753
    36   8 O    2.071 --    35 S    1.712    38 O    0.138
    37   8 O    2.092 --    35 S    1.018    60 H    0.827
    38   8 O    2.090 --    35 S    1.732    36 O    0.138
    39   6 C    3.989 --    40 C    1.452    34 C    1.406    61 H    0.967
                            32 C    0.106
    40   6 C    3.986 --    39 C    1.452    31 C    1.388    62 H    0.971
                            33 C    0.106
    41   6 C    3.921 --    30 C    1.319    45 N    1.212    42 C    1.174
    42   6 C    3.963 --    43 C    1.651    41 C    1.174    63 H    0.973
    43   6 C    3.960 --    42 C    1.651    44 C    1.173    64 H    0.975
    44   6 C    3.922 --     2 C    1.367    45 N    1.198    43 C    1.173
    45   7 N    3.346 --    41 C    1.212    44 C    1.198     1 Co   0.644
    46   1 H    0.999 --     2 C    0.969
    47   1 H    0.997 --     4 C    0.975
    48   1 H    1.003 --     5 C    0.973
    49   1 H    1.003 --    10 C    0.971
    50   1 H    0.999 --    11 C    0.967
    51   1 H    0.854 --    15 O    0.827
    52   1 H    1.000 --    17 C    0.967
    53   1 H    1.003 --    18 C    0.971
    54   1 H    1.003 --    20 C    0.973
    55   1 H    1.003 --    21 C    0.972
    56   1 H    1.003 --    26 C    0.972
    57   1 H    1.003 --    27 C    0.973
    58   1 H    1.003 --    32 C    0.971
    59   1 H    1.000 --    33 C    0.966
    60   1 H    0.854 --    37 O    0.827
    61   1 H    0.999 --    39 C    0.967
    62   1 H    1.003 --    40 C    0.971
    63   1 H    1.002 --    42 C    0.973
    64   1 H    0.997 --    43 C    0.975
    65  27 Co   3.060 --   109 N    0.644    71 N    0.639    86 N    0.637
                            93 N    0.634
    66   6 C    3.931 --   108 C    1.367    67 C    1.364   110 H    0.969
    67   6 C    3.922 --    66 C    1.364    71 N    1.200    68 C    1.174
    68   6 C    3.960 --    69 C    1.649    67 C    1.174   111 H    0.975
    69   6 C    3.963 --    68 C    1.649    70 C    1.175   112 H    0.973
    70   6 C    3.921 --    72 C    1.318    71 N    1.212    69 C    1.175
    71   7 N    3.347 --    70 C    1.212    67 C    1.200    65 Co   0.639
    72   6 C    3.931 --    83 C    1.328    70 C    1.318    73 C    1.032
    73   6 C    3.986 --    82 C    1.390    74 C    1.389    72 C    1.032
    74   6 C    3.986 --    75 C    1.451    73 C    1.389   113 H    0.971
                            81 C    0.106
    75   6 C    3.989 --    74 C    1.451    76 C    1.406   114 H    0.967
                            82 C    0.106
    76   6 C    3.930 --    81 C    1.408    75 C    1.406    77 S    0.754
    77  16 S    5.265 --    80 O    1.720    78 O    1.719    79 O    1.013
                            76 C    0.754
    78   8 O    2.078 --    77 S    1.719    80 O    0.139
    79   8 O    2.088 --    77 S    1.013   115 H    0.827
    80   8 O    2.079 --    77 S    1.720    78 O    0.139
    81   6 C    3.989 --    82 C    1.449    76 C    1.408   116 H    0.967
                            74 C    0.106
    82   6 C    3.986 --    81 C    1.449    73 C    1.390   117 H    0.971
                            75 C    0.106
    83   6 C    3.917 --    72 C    1.328    86 N    1.196    84 C    1.181
    84   6 C    3.958 --    85 C    1.637    83 C    1.181   118 H    0.973
    85   6 C    3.962 --    84 C    1.637    87 C    1.189   119 H    0.972
    86   7 N    3.347 --    87 C    1.226    83 C    1.196    65 Co   0.637
    87   6 C    3.908 --    88 C    1.267    86 N    1.226    85 C    1.189
    88   6 C    3.935 --    87 C    1.267    89 C    1.264   130 C    1.176
    89   6 C    3.908 --    88 C    1.264    93 N    1.227    90 C    1.191
    90   6 C    3.962 --    91 C    1.635    89 C    1.191   120 H    0.972
    91   6 C    3.958 --    90 C    1.635    92 C    1.182   121 H    0.973
    92   6 C    3.917 --    94 C    1.327    93 N    1.196    91 C    1.182
    93   7 N    3.349 --    89 C    1.227    92 C    1.196    65 Co   0.634
    94   6 C    3.932 --    92 C    1.327   105 C    1.319    95 C    1.033
    95   6 C    3.986 --    96 C    1.391   104 C    1.388    94 C    1.033
    96   6 C    3.986 --    97 C    1.448    95 C    1.391   122 H    0.971
                           103 C    0.106
    97   6 C    3.989 --    96 C    1.448    98 C    1.409   123 H    0.966
                           104 C    0.106
    98   6 C    3.932 --    97 C    1.409   103 C    1.406    99 S    0.753
    99  16 S    5.273 --   102 O    1.733   100 O    1.712   101 O    1.019
                            98 C    0.753
   100   8 O    2.071 --    99 S    1.712   102 O    0.138
   101   8 O    2.092 --    99 S    1.019   124 H    0.827
   102   8 O    2.090 --    99 S    1.733   100 O    0.138
   103   6 C    3.989 --   104 C    1.452    98 C    1.406   125 H    0.967
                            96 C    0.106
   104   6 C    3.986 --   103 C    1.452    95 C    1.388   126 H    0.971
                            97 C    0.106
   105   6 C    3.921 --    94 C    1.319   109 N    1.212   106 C    1.174
   106   6 C    3.963 --   107 C    1.651   105 C    1.174   127 H    0.973
   107   6 C    3.960 --   106 C    1.651   108 C    1.173   128 H    0.975
   108   6 C    3.922 --    66 C    1.367   109 N    1.198   107 C    1.173
   109   7 N    3.346 --   105 C    1.212   108 C    1.198    65 Co   0.644
   110   1 H    0.999 --    66 C    0.969
   111   1 H    0.997 --    68 C    0.975
   112   1 H    1.003 --    69 C    0.973
   113   1 H    1.003 --    74 C    0.971
   114   1 H    0.999 --    75 C    0.967
   115   1 H    0.854 --    79 O    0.827
   116   1 H    1.000 --    81 C    0.967
   117   1 H    1.003 --    82 C    0.971
   118   1 H    1.003 --    84 C    0.973
   119   1 H    1.003 --    85 C    0.972
   120   1 H    1.003 --    90 C    0.972
   121   1 H    1.003 --    91 C    0.973
   122   1 H    1.003 --    96 C    0.971
   123   1 H    1.000 --    97 C    0.966
   124   1 H    0.854 --   101 O    0.827
   125   1 H    0.999 --   103 C    0.967
   126   1 H    1.003 --   104 C    0.971
   127   1 H    1.002 --   106 C    0.973
   128   1 H    0.997 --   107 C    0.975
   129   6 C    3.931 --   130 C    2.576    24 C    1.176
   130   6 C    3.931 --   129 C    2.576    88 C    1.176
 ---------------------------------------------------------------------------

           -------------------------------------------------
          | TOTAL ENERGY             -263.335363566188 Eh   |
          | GRADIENT NORM               0.000486318304 Eh/α |
          | HOMO-LUMO GAP               0.008143838956 eV   |
           -------------------------------------------------

 * finished run on 2022/07/30 at 05:43:33.206
