   * xtb version 6.5.1 (b24c23e) compiled by 'conda@728c89f4b128' on 2022-07-12
          program call               : xtb Ph3OH_C2_2.xyz --gfn 1 --opt -T 48

   ID    Z sym.   atoms
    1    6 C      1-5, 7-10, 12, 14, 16-19, 21-26, 28-31, 33, 35, 37-41,
                  64-68, 70-73, 75, 77, 79-82, 84-89, 91-94, 96, 98, 100-104,
                  127, 128
    2    7 N      6, 20, 27, 42, 69, 83, 90, 105
    3    8 O      11, 13, 15, 32, 34, 36, 74, 76, 78, 95, 97, 99
    4    1 H      43-63, 106-126
########################################################################
[WARNING] Please study the warnings concerning your input carefully
-1- prog_main_parseArguments: Unknown option '-T' provided
########################################################################

          :  Hamiltonian                  GFN1-xTB          :
 * total energy  :  -243.1268104 Eh     change       -0.2789022E-09 Eh
 * total energy  :  -243.7440516 Eh     change       -0.6172412E+00 Eh
 * total energy  :  -243.9026072 Eh     change       -0.1585556E+00 Eh
 * total energy  :  -243.9673331 Eh     change       -0.6472584E-01 Eh
 * total energy  :  -244.0004015 Eh     change       -0.3306839E-01 Eh
 * total energy  :  -244.0156315 Eh     change       -0.1523007E-01 Eh
 * total energy  :  -244.0246416 Eh     change       -0.9010081E-02 Eh
 * total energy  :  -244.0299495 Eh     change       -0.5307896E-02 Eh
 * total energy  :  -244.0335729 Eh     change       -0.3623339E-02 Eh
 * total energy  :  -244.0362815 Eh     change       -0.2708669E-02 Eh
 * total energy  :  -244.0480245 Eh     change       -0.6668361E-05 Eh
 * total energy  :  -244.0480326 Eh     change       -0.8125896E-05 Eh
 * total energy  :  -244.0480426 Eh     change       -0.9942113E-05 Eh
 * total energy  :  -244.0480553 Eh     change       -0.1271647E-04 Eh
 * total energy  :  -244.0480721 Eh     change       -0.1681886E-04 Eh
 * total energy  :  -244.0480920 Eh     change       -0.1989148E-04 Eh
 * total energy  :  -244.0480989 Eh     change       -0.6893353E-05 Eh
 * total energy  :  -244.0481056 Eh     change       -0.6738403E-05 Eh
 * total energy  :  -244.0481103 Eh     change       -0.4633126E-05 Eh
   *** GEOMETRY OPTIMIZATION CONVERGED AFTER 46 ITERATIONS ***

 final structure:
================
128
 xtb: 6.5.1 (b24c23e)
C           12.85543873605429       -0.43205722288656        0.13694827711332
C           13.46637310166374       -1.15120399517141       -0.88197292511565
C           12.82014181964905       -1.92663096525862       -1.88520899280076
C           13.78596390974564       -2.47344595520598       -2.68219416410558
C           15.05484799295204       -2.06485764306358       -2.18031588047983
N           14.80987103214976       -1.25553555391998       -1.10694661000531
C           16.32250483258836       -2.41696424334373       -2.65591777408832
C           16.37293238706852       -3.33662730600606       -3.81903572229177
C           17.00342355938437       -2.92155995022762       -4.99569751493717
C           17.04441677049132       -3.77056145398148       -6.09415233917550
O           17.63521842560973       -3.42862535946311       -7.28235807489619
C           16.46639644714132       -5.03560510045228       -6.02477601712416
O           16.49383885088650       -5.89295937982388       -7.09313417811233
C           15.84278385707329       -5.45410717760173       -4.84820234490958
O           15.28853476596556       -6.68958072496641       -4.78908666433294
C           15.79340190907302       -4.60379442801225       -3.74966488634177
C           17.53297125292141       -1.97327853303991       -2.11489773213672
C           18.83084485811615       -2.47396207087560       -2.52892109270185
C           19.74706180714454       -1.81978226283620       -1.78522643880368
N           17.68307914523159       -1.04621870721897       -1.12985777282295
C           19.01073239641034       -0.91440882892575       -0.92610758512605
C           19.64184902138017       -0.00998080937279       -0.04817976672981
C           18.98789065947407        0.87110103538346        0.83487234605425
C           19.59949966965199        1.86756516273859        1.63906443394049
C           18.62164762739939        2.47853933048853        2.37442376565333
C           17.38075675368304        1.86558039933097        2.04820283697971
N           17.65050965003105        0.91668148206386        1.09746965807983
C           16.12149216774307        2.15821753338172        2.58461429200694
C           16.07210100337749        3.17834338786106        3.65966214267211
C           16.80301742970886        3.00080187966476        4.83523281116098
C           16.75200427919969        3.95929078797203        5.84038644471215
O           17.45301049581597        3.79252380897872        6.98842052702493
C           15.97352861352002        5.10534688546318        5.67000645999061
O           15.94589414633652        6.03519591721396        6.67614607104329
C           15.24596412531274        5.28394868604022        4.49618376823978
O           14.50829712606799        6.43484055975509        4.39890046754808
C           15.28969411055597        4.32478208700933        3.49249935304383
C           14.92220014469969        1.56192917925964        2.18013884797744
C           13.63301637299027        1.80520213414158        2.80883252844403
C           12.72915330093835        1.07665543325896        2.12277233646060
C           13.46578586615157        0.38359505182883        1.08103558530432
N           14.78522866168716        0.68462152927744        1.15779202983840
H           11.77438088834398       -0.51376416320721        0.18697187297533
H           11.75152083638100       -2.03667718713985       -1.97892267627589
H           13.63740461594667       -3.10216262879481       -3.54497994714289
H           15.53075280647885       -0.80180074709185       -0.55599128711654
H           17.44338094083441       -1.93331542683216       -5.06052789207354
H           18.01674918245619       -2.54234669334137       -7.23346215827209
H           16.96746834014816       -5.45324906487218       -7.81704963451304
H           15.43029999456888       -7.12874790758404       -5.64389113625821
H           15.32373347717540       -4.94709547697003       -2.83698951412087
H           18.99576091171111       -3.24113121908850       -3.26809464406074
H           20.81878059642352       -1.93218382726896       -1.79075138942012
H           20.65218909826266        2.09680310629251        1.63727972495903
H           18.74621564354630        3.28909164472845        3.07364213953868
H           16.94734177378303        0.33151053491094        0.65871915953130
H           17.39543366328845        2.10777271141203        4.98708461624233
H           17.28418340076564        4.55741215333295        7.56296296281767
H           15.35609372034558        6.75511588595959        6.40141238677566
H           14.03195525922671        6.46675032905502        3.55883288003767
H           14.73356970300849        4.47860381956088        2.57522587974373
H           13.46912108200561        2.43550624024635        3.66819254907708
H           11.66616179592834        0.99091232953302        2.28589136325033
C           30.46348095494553       -0.24016707116250        0.38434445340248
C           29.85254307017873        0.56763186368154        1.33451753753736
C           30.49877092896956        1.34623898928127        2.33528959473371
C           29.53294562769954        1.98198695592677        3.06330771909965
C           28.26406319283187        1.59761895022719        2.54264341381100
N           28.50904375910691        0.75953515597040        1.49157854713950
C           26.99640499930662        1.97057545876486        3.00207398168068
C           26.94597657792077        2.86811129840869        4.18235069461234
C           26.31548443216118        4.11105933460488        4.07329666131326
C           26.27449200620849        4.96355867766588        5.16903924379775
O           25.68369035640142        6.19948078363767        5.13368769142105
C           26.85251344422243        4.58141944132528        6.37697831124869
O           26.82507170878569        5.40269006039616        7.47331777128646
C           27.47612692245057        3.33770156372343        6.48938068649320
O           28.03037712879416        2.97286176399462        7.67123523419107
C           27.52550882239697        2.48544907478066        5.39234744725647
C           25.78593962860439        1.55704363627464        2.43766890230487
C           24.48806498615954        1.83338553144902        3.02565818880579
C           23.57184947377815        1.27596615657789        2.20692769920953
N           25.63583363728067        0.83381884477193        1.29456325417482
C           24.30818093389708        0.66929738025337        1.11617716327570
C           23.67706627664040        0.04416880845821        0.02166154943437
C           24.33102613978223       -0.59173827554734       -1.05151422964924
C           23.71941776499458       -1.12254692635896       -2.21680765162378
C           24.69727077270880       -1.68265079853279       -2.99161352015314
C           25.93816201276863       -1.51929023194923       -2.31674220387006
N           25.66840774893312       -0.83471764972199       -1.16103351646685
C           27.19742851703494       -1.96595153989433       -2.73371033208364
C           27.24682102786860       -2.75318633022817       -3.98935598891461
C           26.51591282087241       -3.93594935280772       -4.11006603690405
C           26.56692457192366       -4.67083283670923       -5.28861652929891
O           25.86592574068975       -5.82424336746564       -5.41290691383552
C           27.34539078806903       -4.22049345137797       -6.35617587087557
O           27.37302353551218       -4.96346208052371       -7.50723360368949
C           28.07294745932149       -3.03915955596430       -6.23692780122480
O           28.81060511617657       -2.65841178676258       -7.32736839404716
C           28.02921867367305       -2.30586766007043       -5.05808681810113
C           28.39672153403257       -1.72264670880702       -2.05550638980332
C           29.68590910487787       -2.27096852872790       -2.44764235954832
C           30.58977228042299       -1.78786946223410       -1.57124394808844
C           29.85313558531076       -0.95147883363277       -0.64065664141246
N           28.53369117374151       -0.95089160649784       -0.95130690470849
H           31.54453999587908       -0.30894444979690        0.45101855497125
H           31.56739193342708        1.40961576230008        2.46519709105236
H           29.68150144260362        2.66108462541488        3.88702574857016
H           27.78816370622958        0.33887931455478        0.91496932066699
H           25.87552645014238        4.41988338601244        3.13230920677759
H           25.30215921724249        6.37277370891802        4.26314191232201
H           26.35144181469160        6.21328273433963        7.22768012678523
H           27.88861185117493        3.69141522581707        8.30938834120598
H           27.99517862103580        1.51604258426183        5.49761697519178
H           24.32314747388206        2.35829486436074        3.95269420384658
H           22.50013047634847        1.25333251265414        2.31716461597355
H           22.66672794526937       -1.06375416454929       -2.43838311236415
H           24.57270292959243       -2.15807123252069       -3.95071560580893
H           26.37157536946766       -0.55545416468220       -0.48506066446817
H           25.92350385406232       -4.30534950366751       -3.28295533685053
H           26.03474960168626       -6.19027039361419       -6.29674992673361
H           27.96281454436630       -4.51814382923721       -8.13609457148075
H           29.28694206458349       -1.83684640080585       -7.14913603816786
H           28.58533630168721       -1.37917556767256       -4.97870753325630
H           29.84980682448766       -2.94635646792887       -3.27204113356059
H           31.65276615219074       -1.96718622530252       -1.52881589996993
C           21.05083919202399        0.02826174574706       -0.04394665862182
C           22.26807618567392        0.04959224748821       -0.01643447020365

          :  Hamiltonian                  GFN1-xTB          :
         :: total energy            -244.048110276155 Eh    ::
         :: gradient norm              0.000590971876 Eh/a0 ::
         :: HOMO-LUMO gap              0.973275108982 eV    ::
         :: SCC energy              -247.289844900262 Eh    ::
         :: repulsion energy           3.350645139879 Eh    ::

    * Orbital Energies and Occupations

         #    Occupation            Energy/Eh            Energy/eV
      -------------------------------------------------------------
         1        2.0000           -0.8125192             -22.1098
       ...           ...                  ...                  ...
       197        2.0000           -0.4175587             -11.3624
       198        2.0000           -0.4161583             -11.3242
       199        2.0000           -0.4161229             -11.3233
       200        2.0000           -0.4136505             -11.2560
       201        2.0000           -0.4136475             -11.2559
       202        2.0000           -0.4118554             -11.2072
       203        2.0000           -0.4117338             -11.2038
       204        2.0000           -0.4104560             -11.1691
       205        2.0000           -0.4102041             -11.1622
       206        2.0000           -0.3978773             -10.8268
       207        2.0000           -0.3972257             -10.8091
       208        2.0000           -0.3881974             -10.5634
       209        2.0000           -0.3758901             -10.2285 (HOMO)
       210                         -0.3401229              -9.2552 (LUMO)
       211                         -0.3299011              -8.9771
       212                         -0.3298085              -8.9745
       213                         -0.3235075              -8.8031
       214                         -0.2973745              -8.0920
       215                         -0.2885339              -7.8514
       216                         -0.2548341              -6.9344
       217                         -0.2545263              -6.9260
       218                         -0.2533882              -6.8950
       219                         -0.2529565              -6.8833
       220                         -0.2525571              -6.8724
       ...                                ...                  ...
       428                          1.3354021              36.3381
      -------------------------------------------------------------
                  HL-Gap            0.0357672 Eh            0.9733 eV

Wiberg/Mayer (AO) data.
largest (>0.10) Wiberg bond orders for each atom

     #   Z sym  total        # sym  WBO       # sym  WBO       # sym  WBO
 ---------------------------------------------------------------------------
     1   6 C    3.924 --    41 C    1.364     2 C    1.347    43 H    0.971
     2   6 C    3.902 --     1 C    1.347     3 C    1.229     6 N    1.170
     3   6 C    3.952 --     4 C    1.596     2 C    1.229    44 H    0.977
     4   6 C    3.959 --     3 C    1.596     5 C    1.234    45 H    0.974
     5   6 C    3.896 --     7 C    1.305     4 C    1.234     6 N    1.175
     6   7 N    3.468 --     5 C    1.175     2 C    1.170    46 H    0.874
     7   6 C    3.938 --    17 C    1.330     5 C    1.305     8 C    1.031
     8   6 C    3.989 --    16 C    1.398     9 C    1.384     7 C    1.031
     9   6 C    3.972 --    10 C    1.386     8 C    1.384    47 H    0.969
    10   6 C    3.905 --     9 C    1.386    12 C    1.340    11 O    1.013
    11   8 O    2.025 --    10 C    1.013    48 H    0.861
    12   6 C    3.903 --    10 C    1.340    14 C    1.324    13 O    1.021
    13   8 O    2.021 --    12 C    1.021    49 H    0.846
    14   6 C    3.918 --    16 C    1.380    12 C    1.324    15 O    1.053
    15   8 O    2.048 --    14 C    1.053    50 H    0.847
    16   6 C    3.976 --     8 C    1.398    14 C    1.380    51 H    0.970
    17   6 C    3.915 --     7 C    1.330    20 N    1.290    18 C    1.127
    18   6 C    3.965 --    19 C    1.706    17 C    1.127    52 H    0.974
    19   6 C    3.964 --    18 C    1.706    21 C    1.131    53 H    0.969
    20   7 N    3.020 --    21 C    1.340    17 C    1.290
    21   6 C    3.913 --    20 N    1.340    22 C    1.259    19 C    1.131
    22   6 C    3.937 --    21 C    1.259    23 C    1.252   127 C    1.182
    23   6 C    3.889 --    22 C    1.252    24 C    1.252    27 N    1.188
    24   6 C    3.958 --    25 C    1.579    23 C    1.252    54 H    0.970
    25   6 C    3.954 --    24 C    1.579    26 C    1.243    55 H    0.974
    26   6 C    3.898 --    28 C    1.307    25 C    1.243    27 N    1.166
    27   7 N    3.474 --    23 C    1.188    26 C    1.166    56 H    0.873
    28   6 C    3.924 --    38 C    1.321    26 C    1.307    29 C    1.034
    29   6 C    3.989 --    30 C    1.396    37 C    1.384    28 C    1.034
    30   6 C    3.975 --    29 C    1.396    31 C    1.381    57 H    0.970
    31   6 C    3.918 --    30 C    1.381    33 C    1.323    32 O    1.052
    32   8 O    2.048 --    31 C    1.052    58 H    0.848
    33   6 C    3.902 --    35 C    1.340    31 C    1.323    34 O    1.021
    34   8 O    2.020 --    33 C    1.021    59 H    0.846
    35   6 C    3.905 --    37 C    1.386    33 C    1.340    36 O    1.013
    36   8 O    2.024 --    35 C    1.013    60 H    0.861
    37   6 C    3.971 --    35 C    1.386    29 C    1.384    61 H    0.969
    38   6 C    3.929 --    28 C    1.321    42 N    1.317    39 C    1.119
    39   6 C    3.967 --    40 C    1.720    38 C    1.119    62 H    0.974
    40   6 C    3.965 --    39 C    1.720    41 C    1.118    63 H    0.976
    41   6 C    3.929 --     1 C    1.364    42 N    1.301    40 C    1.118
    42   7 N    3.009 --    38 C    1.317    41 C    1.301
    43   1 H    1.002 --     1 C    0.971
    44   1 H    0.998 --     3 C    0.977
    45   1 H    1.005 --     4 C    0.974
    46   1 H    0.986 --     6 N    0.874
    47   1 H    1.001 --     9 C    0.969
    48   1 H    0.881 --    11 O    0.861
    49   1 H    0.876 --    13 O    0.846
    50   1 H    0.878 --    15 O    0.847
    51   1 H    1.000 --    16 C    0.970
    52   1 H    1.005 --    18 C    0.974
    53   1 H    1.007 --    19 C    0.969
    54   1 H    1.006 --    24 C    0.970
    55   1 H    1.005 --    25 C    0.974
    56   1 H    0.987 --    27 N    0.873
    57   1 H    1.000 --    30 C    0.970
    58   1 H    0.878 --    32 O    0.848
    59   1 H    0.876 --    34 O    0.846
    60   1 H    0.881 --    36 O    0.861
    61   1 H    1.002 --    37 C    0.969
    62   1 H    1.006 --    39 C    0.974
    63   1 H    0.998 --    40 C    0.976
    64   6 C    3.924 --   104 C    1.364    65 C    1.347   106 H    0.971
    65   6 C    3.902 --    64 C    1.347    66 C    1.229    69 N    1.170
    66   6 C    3.952 --    67 C    1.596    65 C    1.229   107 H    0.977
    67   6 C    3.959 --    66 C    1.596    68 C    1.234   108 H    0.974
    68   6 C    3.896 --    70 C    1.305    67 C    1.234    69 N    1.175
    69   7 N    3.468 --    68 C    1.175    65 C    1.170   109 H    0.874
    70   6 C    3.938 --    80 C    1.330    68 C    1.305    71 C    1.031
    71   6 C    3.989 --    79 C    1.398    72 C    1.384    70 C    1.031
    72   6 C    3.972 --    73 C    1.386    71 C    1.384   110 H    0.969
    73   6 C    3.905 --    72 C    1.386    75 C    1.340    74 O    1.013
    74   8 O    2.025 --    73 C    1.013   111 H    0.861
    75   6 C    3.903 --    73 C    1.340    77 C    1.324    76 O    1.021
    76   8 O    2.021 --    75 C    1.021   112 H    0.846
    77   6 C    3.918 --    79 C    1.380    75 C    1.324    78 O    1.053
    78   8 O    2.048 --    77 C    1.053   113 H    0.847
    79   6 C    3.976 --    71 C    1.398    77 C    1.380   114 H    0.970
    80   6 C    3.915 --    70 C    1.330    83 N    1.290    81 C    1.127
    81   6 C    3.965 --    82 C    1.706    80 C    1.127   115 H    0.974
    82   6 C    3.964 --    81 C    1.706    84 C    1.131   116 H    0.969
    83   7 N    3.020 --    84 C    1.340    80 C    1.290
    84   6 C    3.913 --    83 N    1.340    85 C    1.259    82 C    1.131
    85   6 C    3.937 --    84 C    1.259    86 C    1.252   128 C    1.182
    86   6 C    3.889 --    85 C    1.252    87 C    1.252    90 N    1.188
    87   6 C    3.958 --    88 C    1.579    86 C    1.252   117 H    0.970
    88   6 C    3.954 --    87 C    1.579    89 C    1.243   118 H    0.974
    89   6 C    3.898 --    91 C    1.307    88 C    1.243    90 N    1.166
    90   7 N    3.474 --    86 C    1.188    89 C    1.166   119 H    0.873
    91   6 C    3.924 --   101 C    1.321    89 C    1.307    92 C    1.034
    92   6 C    3.989 --    93 C    1.396   100 C    1.384    91 C    1.034
    93   6 C    3.975 --    92 C    1.396    94 C    1.381   120 H    0.970
    94   6 C    3.918 --    93 C    1.381    96 C    1.323    95 O    1.052
    95   8 O    2.048 --    94 C    1.052   121 H    0.848
    96   6 C    3.902 --    98 C    1.340    94 C    1.323    97 O    1.021
    97   8 O    2.020 --    96 C    1.021   122 H    0.846
    98   6 C    3.905 --   100 C    1.386    96 C    1.340    99 O    1.013
    99   8 O    2.024 --    98 C    1.013   123 H    0.861
   100   6 C    3.971 --    98 C    1.386    92 C    1.384   124 H    0.969
   101   6 C    3.929 --    91 C    1.321   105 N    1.317   102 C    1.119
   102   6 C    3.967 --   103 C    1.720   101 C    1.119   125 H    0.974
   103   6 C    3.965 --   102 C    1.720   104 C    1.118   126 H    0.976
   104   6 C    3.929 --    64 C    1.364   105 N    1.301   103 C    1.118
   105   7 N    3.009 --   101 C    1.317   104 C    1.301
   106   1 H    1.002 --    64 C    0.971
   107   1 H    0.998 --    66 C    0.977
   108   1 H    1.005 --    67 C    0.974
   109   1 H    0.986 --    69 N    0.874
   110   1 H    1.001 --    72 C    0.969
   111   1 H    0.881 --    74 O    0.861
   112   1 H    0.876 --    76 O    0.846
   113   1 H    0.878 --    78 O    0.847
   114   1 H    1.000 --    79 C    0.970
   115   1 H    1.005 --    81 C    0.974
   116   1 H    1.007 --    82 C    0.969
   117   1 H    1.006 --    87 C    0.970
   118   1 H    1.005 --    88 C    0.974
   119   1 H    0.987 --    90 N    0.873
   120   1 H    1.000 --    93 C    0.970
   121   1 H    0.878 --    95 O    0.848
   122   1 H    0.876 --    97 O    0.846
   123   1 H    0.881 --    99 O    0.861
   124   1 H    1.002 --   100 C    0.969
   125   1 H    1.006 --   102 C    0.974
   126   1 H    0.998 --   103 C    0.976
   127   6 C    3.933 --   128 C    2.572    22 C    1.182
   128   6 C    3.933 --   127 C    2.572    85 C    1.182
 ---------------------------------------------------------------------------

           -------------------------------------------------
          | TOTAL ENERGY             -244.048110276155 Eh   |
          | GRADIENT NORM               0.000590971876 Eh/α |
          | HOMO-LUMO GAP               0.973275108982 eV   |
           -------------------------------------------------

 * finished run on 2022/07/29 at 10:09:45.694
