   * xtb version 6.5.1 (b24c23e) compiled by 'conda@728c89f4b128' on 2022-07-12
          program call               : xtb Co_PhNO2_C6_2.xyz --gfn 1 --opt -T 48

   ID    Z sym.   atoms
    1   27 Co     1, 61
    2    6 C      2-6, 8-12, 16-20, 22-27, 29-33, 37-42, 62-66, 68-72, 76-80,
                  82-87, 89-93, 97-102, 121-126
    3    7 N      7, 13, 21, 28, 34, 43, 67, 73, 81, 88, 94, 103
    4    8 O      14, 15, 35, 36, 74, 75, 95, 96
    5    1 H      44-60, 104-120
########################################################################
[WARNING] Please study the warnings concerning your input carefully
-1- prog_main_parseArguments: Unknown option '-T' provided
########################################################################

          :  Hamiltonian                  GFN1-xTB          :
 * total energy  :  -248.3408228 Eh     change        0.6501239E-08 Eh
 * total energy  :  -248.4919611 Eh     change       -0.1511383E+00 Eh
 * total energy  :  -248.5630277 Eh     change       -0.7106659E-01 Eh
 * total energy  :  -248.5835521 Eh     change       -0.2052436E-01 Eh
 * total energy  :  -248.5961198 Eh     change       -0.1256776E-01 Eh
 * total energy  :  -248.6017334 Eh     change       -0.5613541E-02 Eh
 * total energy  :  -248.6071419 Eh     change       -0.5408520E-02 Eh
 * total energy  :  -248.6100819 Eh     change       -0.2939985E-02 Eh
 * total energy  :  -248.6119748 Eh     change       -0.1892929E-02 Eh
 * total energy  :  -248.6131344 Eh     change       -0.1159609E-02 Eh
 * total energy  :  -248.6168211 Eh     change       -0.9231839E-05 Eh
 * total energy  :  -248.6168147 Eh     change        0.6368651E-05 Eh
 * total energy  :  -248.6168370 Eh     change       -0.2232236E-04 Eh
 * total energy  :  -248.6168459 Eh     change       -0.8878558E-05 Eh
 * total energy  :  -248.6168559 Eh     change       -0.9976687E-05 Eh
 * total energy  :  -248.6168616 Eh     change       -0.5690467E-05 Eh
 * total energy  :  -248.6168692 Eh     change       -0.7576410E-05 Eh
 * total energy  :  -248.6168748 Eh     change       -0.5606687E-05 Eh
 * total energy  :  -248.6168789 Eh     change       -0.4125303E-05 Eh
   *** GEOMETRY OPTIMIZATION CONVERGED AFTER 52 ITERATIONS ***

 final structure:
================
126
 xtb: 6.5.1 (b24c23e)
Co          14.68936683428167       -0.04780096016567       -0.06816596514196
C           11.32146818760315       -0.04171485579690       -0.18956433562699
C           11.97009980539353       -1.25200144227390       -0.06973222992731
C           11.30278051962352       -2.51383145967661        0.03568066428297
C           12.25744365002319       -3.46797272039310       -0.06705248407361
C           13.50576727076366       -2.78671804384832       -0.25339405097696
N           13.32734411966575       -1.42950765508657       -0.17563026498382
C           14.69869366743050       -3.41246788302485       -0.59290074902202
C           14.70367640732633       -4.87103516055018       -0.83504891562062
C           15.53930853020839       -5.70830946985577       -0.08927066925789
C           15.54714346816297       -7.07314856479339       -0.31192973883027
C           14.71575458820667       -7.60576478535859       -1.29311907505451
N           14.72141580029147       -9.03837529099865       -1.53248704323539
O           13.98244185313074       -9.46425999560422       -2.38271273074888
O           15.46365569736643       -9.71228223252906       -0.86536736620846
C           13.87905158172190       -6.78967971073831       -2.04916720101669
C           13.87524881666703       -5.42684473598985       -1.81524148119311
C           15.88475031518448       -2.70375063200120       -0.72747230718064
C           17.12537624845208       -3.27579374074117       -1.15661885253265
C           18.07336675268197       -2.32169742383125       -0.99134886629926
N           16.06276822155081       -1.38826076475112       -0.36867362685402
C           17.40878090975813       -1.17028425645675       -0.46916004596010
C           18.07782828922110       -0.04562624340360        0.02039374648453
C           17.38676957603051        1.06849109268281        0.50376186041503
C           18.02567940453131        2.20887486915633        1.07979850300383
C           17.06442922455618        3.14868162188324        1.24910170483094
C           15.84399214655867        2.58344273649255        0.75691183127494
N           16.04244071163924        1.27739373339600        0.37190361982198
C           14.66762865088826        3.29623817247899        0.57394587649270
C           14.65261798522388        4.74765546313441        0.85654402835621
C           13.76154242470111        5.27233942318455        1.79793339654087
C           13.74296687007067        6.62818467984260        2.06915408151452
C           14.61912332956971        7.46860165789716        1.38821878436928
N           14.60143819185511        8.89405708449233        1.66653274696716
O           13.81212612902197        9.29251481860380        2.48410639773164
O           15.37753920071531        9.58953588067212        1.06316097287643
C           15.51135510531157        6.96720406224811        0.44477725779935
C           15.52600391015584        5.60893317748537        0.18522749861500
C           13.50257435096164        2.68557501217912        0.12611352482603
C           12.27922847407593        3.37917171923523       -0.15433250303385
C           11.33547998669061        2.43395575423116       -0.37519222656734
C           11.98473585414542        1.16566468742918       -0.23844811519339
N           13.32567811188866        1.33219045000681        0.00366482837651
H           10.23922046237772       -0.03875498871927       -0.24012763884077
H           10.23896129145430       -2.63305225766361        0.16460821261914
H           12.14025380985998       -4.53863819715945       -0.02538718199535
H           16.17227962483921       -5.28294941284658        0.68068832811730
H           16.18594598331202       -7.73072025971522        0.26517678159758
H           13.24591796552007       -7.22858225256193       -2.81077916575182
H           13.23923816738681       -4.77929379968000       -2.40732400625052
H           17.24492400638754       -4.27731561287886       -1.53637199464967
H           19.13121995462244       -2.38007523450714       -1.19025840223203
H           19.07623670037977        2.26838230920043        1.31400547191900
H           17.16322096731281        4.13827354326251        1.66444234371553
H           13.09276528957796        4.60586457552408        2.32997444441637
H           13.06092834808743        7.04308232697138        2.80150705869206
H           16.17955819771853        7.64338214169540       -0.07481282824565
H           16.20680130615844        5.20828869589339       -0.55672582522470
H           12.17050979797552        4.45137127087644       -0.17628263362468
H           10.28929029800935        2.56356994195411       -0.60142620854435
Co          30.63904930825923        0.06963880821880       -0.04661621603066
C           34.00987926392639        0.11080003073265       -0.16696191958344
C           33.36151783110269        1.19575652987680        0.38241257091491
C           34.03218792670749        2.33423951319510        0.93274184391278
C           33.07784791963082        3.25689247054836        1.19678890358283
C           31.82638519664781        2.68616900364539        0.79032749479315
N           32.00357113995366        1.39601489088052        0.36093461868006
C           30.62959491229185        3.38802278072228        0.72928385901908
C           30.62453520687976        4.83110821383268        1.05367260383831
C           29.81980849807487        5.31974539164356        2.08744186494910
C           29.81274937045449        6.66800179681936        2.39524270746762
C           30.61292010049888        7.53669418616125        1.65857623180742
N           30.60760419247145        8.95411479646948        1.97596113885516
O           31.31646163113324        9.67464165310085        1.32129463004541
O           29.89391930994811        9.32164105768541        2.87364645519115
C           31.41811878908755        7.07129354295224        0.62285957386790
C           31.42232423859066        5.72048201461983        0.32699355419670
C           29.43969087492469        2.77879984244148        0.35656104828841
C           28.19567825382754        3.46958791851590        0.19633298326681
C           27.24772679768176        2.52376512710712       -0.00977765860576
N           29.26301489789171        1.42579054137418        0.18497935080149
C           27.91573839019404        1.26154139972057        0.01963878919878
C           27.24717761147870        0.03504466469267        0.03289608408125
C           27.93715978881100       -1.17973359535600        0.04540205236821
C           27.29369580076802       -2.45229417041674        0.13028214202244
C           28.25457681415295       -3.38715426342855       -0.06467311738129
C           29.47951004415508       -2.67897007995998       -0.28628291059401
N           29.28289151480270       -1.32434888927958       -0.14516251457869
C           30.66081244339744       -3.27419459860304       -0.70385602741797
C           30.67533199407309       -4.72647136878979       -0.98493199907442
C           31.53620290426436       -5.57151787458108       -0.27793016963863
C           31.55329147117058       -6.93053939118430       -0.53323445570613
C           30.70715321187078       -7.44830923209879       -1.50976798131540
N           30.72351728301549       -8.87451688915309       -1.78448335749259
O           31.48359918245413       -9.55642496420471       -1.14613530847880
O           29.97714872945834       -9.28697547352894       -2.63472409230415
C           29.84591426548619       -6.62362528112685       -2.22792968008403
C           29.83144778371637       -5.26695277750904       -1.95994030699004
C           31.83100224961806       -2.54512345432697       -0.87327359989269
C           33.05890102673973       -3.09194390414016       -1.37271331313491
C           34.00208300507261       -2.13199330714142       -1.22704392104759
C           33.34803281209615       -0.99888863689849       -0.64642848041423
N           32.00569709038081       -1.24073816948625       -0.49088770558458
H           35.09205655605589        0.12749123526350       -0.21663917399812
H           35.09768436790409        2.40121960475658        1.08367355075510
H           33.19673706960930        4.23924259694209        1.62421339505862
H           29.21032101116731        4.63125080899221        2.66101753486443
H           29.19801709791605        7.05543802395693        3.19875988092962
H           32.02750765368508        7.76911735459632        0.06130989911519
H           32.03471930266008        5.34745069847235       -0.48559486077510
H           28.07450798819979        4.53979760474518        0.23535297363584
H           26.18790613469750        2.65185506004992       -0.15938836128449
H           26.24069281997538       -2.59452600496666        0.31186709098563
H           28.15325835807128       -4.46012447276364       -0.06458801077071
H           32.18222283297492       -5.15719987967120        0.48727519423637
H           32.21128886556174       -7.59460214472228        0.01426972355867
H           29.20102641480109       -7.05114275662448       -2.98626199282376
H           29.17403200980531       -4.61253097072087       -2.52035044265694
H           33.17028497733839       -4.08391285611929       -1.77951161958640
H           35.05077707554743       -2.17155369001746       -1.47440431506379
C           23.27677255229276       -0.00214840012259        0.04084486253185
C           22.04810074997901       -0.01450964331755        0.04060684083568
C           20.70460640656840       -0.02779880079826        0.03575625433958
C           19.48054863731285       -0.03630798515434        0.03284505200843
C           24.62026659335836        0.01244667505285        0.04079113129890
C           25.84432010294610        0.02158923005262        0.04075739128776

          :  Hamiltonian                  GFN1-xTB          :
         :: total energy            -248.616878898152 Eh    ::
         :: gradient norm              0.000658012147 Eh/a0 ::
         :: HOMO-LUMO gap              0.004846450867 eV    ::
         :: SCC energy              -252.114302879234 Eh    ::
         :: repulsion energy           3.609529781430 Eh    ::

    * Orbital Energies and Occupations

         #    Occupation            Energy/Eh            Energy/eV
      -------------------------------------------------------------
         1        2.0000           -0.9240253             -25.1440
       ...           ...                  ...                  ...
       208        2.0000           -0.4469450             -12.1620
       209        2.0000           -0.4397712             -11.9668
       210        2.0000           -0.4214814             -11.4691
       211        2.0000           -0.4214518             -11.4683
       212        2.0000           -0.4211238             -11.4594
       213        2.0000           -0.4207979             -11.4505
       214        2.0000           -0.4204161             -11.4401
       215        1.9998           -0.4172922             -11.3551
       216        1.9998           -0.4172441             -11.3538
       217        1.9997           -0.4170990             -11.3498
       218        1.9997           -0.4170401             -11.3482
       219        1.8777           -0.4112975             -11.1920
       220        1.1084           -0.4089092             -11.1270 (HOMO)
       221        1.0150           -0.4087311             -11.1221 (LUMO)
       222                         -0.3628712              -9.8742
       223                         -0.3595605              -9.7841
       224                         -0.3592841              -9.7766
       225                         -0.3515820              -9.5670
       226                         -0.3510563              -9.5527
       227                         -0.3510369              -9.5522
       228                         -0.3438273              -9.3560
       229                         -0.3435944              -9.3497
       230                         -0.3231099              -8.7923
       231                         -0.3184312              -8.6650
       ...                                ...                  ...
       446                          1.5549018              42.3110
      -------------------------------------------------------------
                  HL-Gap            0.0001781 Eh            0.0048 eV

Wiberg/Mayer (AO) data.
largest (>0.10) Wiberg bond orders for each atom

     #   Z sym  total        # sym  WBO       # sym  WBO       # sym  WBO
 ---------------------------------------------------------------------------
     1  27 Co   3.052 --     7 N    0.642    43 N    0.639    28 N    0.636
                            21 N    0.634
     2   6 C    3.931 --     3 C    1.366    42 C    1.366    44 H    0.969
     3   6 C    3.921 --     2 C    1.366     7 N    1.198     4 C    1.173
     4   6 C    3.958 --     5 C    1.651     3 C    1.173    45 H    0.974
     5   6 C    3.963 --     4 C    1.651     6 C    1.174    46 H    0.973
     6   6 C    3.921 --     8 C    1.317     7 N    1.213     5 C    1.174
     7   7 N    3.346 --     6 C    1.213     3 C    1.198     1 Co   0.642
     8   6 C    3.931 --    18 C    1.325     6 C    1.317     9 C    1.037
     9   6 C    3.985 --    10 C    1.382    17 C    1.382     8 C    1.037
    10   6 C    3.985 --    11 C    1.464     9 C    1.382    47 H    0.971
                            16 C    0.101
    11   6 C    3.987 --    10 C    1.464    12 C    1.387    48 H    0.965
                            17 C    0.101
    12   6 C    3.941 --    11 C    1.387    16 C    1.387    13 N    0.921
    13   7 N    3.866 --    15 O    1.455    14 O    1.454    12 C    0.921
    14   8 O    1.829 --    13 N    1.454    15 O    0.252
    15   8 O    1.829 --    13 N    1.455    14 O    0.252
    16   6 C    3.987 --    17 C    1.464    12 C    1.387    49 H    0.964
                            10 C    0.101
    17   6 C    3.986 --    16 C    1.464     9 C    1.382    50 H    0.971
                            11 C    0.101
    18   6 C    3.916 --     8 C    1.325    21 N    1.197    19 C    1.181
    19   6 C    3.957 --    20 C    1.636    18 C    1.181    51 H    0.973
    20   6 C    3.961 --    19 C    1.636    22 C    1.190    52 H    0.973
    21   7 N    3.349 --    22 C    1.226    18 C    1.197     1 Co   0.634
    22   6 C    3.901 --    23 C    1.260    21 N    1.226    20 C    1.190
    23   6 C    3.936 --    22 C    1.260    24 C    1.259   124 C    1.191
    24   6 C    3.901 --    23 C    1.259    28 N    1.228    25 C    1.190
    25   6 C    3.960 --    26 C    1.637    24 C    1.190    53 H    0.973
    26   6 C    3.957 --    25 C    1.637    27 C    1.180    54 H    0.973
    27   6 C    3.916 --    29 C    1.328    28 N    1.194    26 C    1.180
    28   7 N    3.348 --    24 C    1.228    27 C    1.194     1 Co   0.636
    29   6 C    3.931 --    27 C    1.328    39 C    1.315    30 C    1.036
    30   6 C    3.985 --    38 C    1.383    31 C    1.382    29 C    1.036
    31   6 C    3.985 --    32 C    1.464    30 C    1.382    55 H    0.971
                            37 C    0.102
    32   6 C    3.987 --    31 C    1.464    33 C    1.387    56 H    0.964
                            38 C    0.102
    33   6 C    3.941 --    37 C    1.387    32 C    1.387    34 N    0.920
    34   7 N    3.866 --    36 O    1.455    35 O    1.454    33 C    0.920
    35   8 O    1.829 --    34 N    1.454    36 O    0.252
    36   8 O    1.829 --    34 N    1.455    35 O    0.252
    37   6 C    3.987 --    38 C    1.464    33 C    1.387    57 H    0.965
                            31 C    0.102
    38   6 C    3.986 --    37 C    1.464    30 C    1.383    58 H    0.971
                            32 C    0.102
    39   6 C    3.920 --    29 C    1.315    43 N    1.214    40 C    1.175
    40   6 C    3.963 --    41 C    1.650    39 C    1.175    59 H    0.973
    41   6 C    3.959 --    40 C    1.650    42 C    1.173    60 H    0.974
    42   6 C    3.921 --     2 C    1.366    43 N    1.198    41 C    1.173
    43   7 N    3.347 --    39 C    1.214    42 C    1.198     1 Co   0.639
    44   1 H    0.999 --     2 C    0.969
    45   1 H    0.997 --     4 C    0.974
    46   1 H    1.002 --     5 C    0.973
    47   1 H    1.004 --    10 C    0.971
    48   1 H    1.006 --    11 C    0.965
    49   1 H    1.006 --    16 C    0.964
    50   1 H    1.004 --    17 C    0.971
    51   1 H    1.002 --    19 C    0.973
    52   1 H    1.000 --    20 C    0.973
    53   1 H    1.000 --    25 C    0.973
    54   1 H    1.002 --    26 C    0.973
    55   1 H    1.003 --    31 C    0.971
    56   1 H    1.006 --    32 C    0.964
    57   1 H    1.006 --    37 C    0.965
    58   1 H    1.004 --    38 C    0.971
    59   1 H    1.002 --    40 C    0.973
    60   1 H    0.997 --    41 C    0.974
    61  27 Co   3.043 --    67 N    0.641   103 N    0.638    88 N    0.635
                            81 N    0.633
    62   6 C    3.931 --    63 C    1.366   102 C    1.366   104 H    0.969
    63   6 C    3.921 --    62 C    1.366    67 N    1.199    64 C    1.173
    64   6 C    3.960 --    65 C    1.651    63 C    1.173   105 H    0.974
    65   6 C    3.962 --    64 C    1.651    66 C    1.174   106 H    0.973
    66   6 C    3.921 --    68 C    1.318    67 N    1.213    65 C    1.174
    67   7 N    3.346 --    66 C    1.213    63 C    1.199    61 Co   0.641
    68   6 C    3.931 --    78 C    1.326    66 C    1.318    69 C    1.035
    69   6 C    3.985 --    70 C    1.383    77 C    1.383    68 C    1.035
    70   6 C    3.986 --    71 C    1.464    69 C    1.383   107 H    0.971
                            76 C    0.102
    71   6 C    3.987 --    70 C    1.464    72 C    1.387   108 H    0.965
                            77 C    0.102
    72   6 C    3.941 --    71 C    1.387    76 C    1.387    73 N    0.920
    73   7 N    3.866 --    75 O    1.455    74 O    1.455    72 C    0.920
    74   8 O    1.829 --    73 N    1.455    75 O    0.252
    75   8 O    1.829 --    73 N    1.455    74 O    0.252
    76   6 C    3.987 --    77 C    1.464    72 C    1.387   109 H    0.964
                            70 C    0.102
    77   6 C    3.986 --    76 C    1.464    69 C    1.383   110 H    0.971
                            71 C    0.102
    78   6 C    3.916 --    68 C    1.326    81 N    1.197    79 C    1.181
    79   6 C    3.957 --    80 C    1.637    78 C    1.181   111 H    0.973
    80   6 C    3.961 --    79 C    1.637    82 C    1.190   112 H    0.973
    81   7 N    3.349 --    82 C    1.227    78 C    1.197    61 Co   0.633
    82   6 C    3.901 --    83 C    1.261    81 N    1.227    80 C    1.190
    83   6 C    3.936 --    82 C    1.261    84 C    1.259   126 C    1.191
    84   6 C    3.901 --    83 C    1.259    88 N    1.229    85 C    1.189
    85   6 C    3.961 --    86 C    1.638    84 C    1.189   113 H    0.973
    86   6 C    3.957 --    85 C    1.638    87 C    1.180   114 H    0.973
    87   6 C    3.916 --    89 C    1.329    88 N    1.194    86 C    1.180
    88   7 N    3.348 --    84 C    1.229    87 C    1.194    61 Co   0.635
    89   6 C    3.931 --    87 C    1.329    99 C    1.315    90 C    1.034
    90   6 C    3.985 --    98 C    1.383    91 C    1.383    89 C    1.034
    91   6 C    3.986 --    92 C    1.464    90 C    1.383   115 H    0.971
                            97 C    0.102
    92   6 C    3.987 --    91 C    1.464    93 C    1.387   116 H    0.964
                            98 C    0.102
    93   6 C    3.941 --    97 C    1.387    92 C    1.387    94 N    0.920
    94   7 N    3.866 --    96 O    1.455    95 O    1.455    93 C    0.920
    95   8 O    1.829 --    94 N    1.455    96 O    0.252
    96   8 O    1.829 --    94 N    1.455    95 O    0.252
    97   6 C    3.987 --    98 C    1.463    93 C    1.387   117 H    0.964
                            91 C    0.102
    98   6 C    3.987 --    97 C    1.463    90 C    1.383   118 H    0.971
                            92 C    0.102
    99   6 C    3.920 --    89 C    1.315   103 N    1.214   100 C    1.175
   100   6 C    3.963 --   101 C    1.650    99 C    1.175   119 H    0.973
   101   6 C    3.959 --   100 C    1.650   102 C    1.173   120 H    0.974
   102   6 C    3.921 --    62 C    1.366   103 N    1.198   101 C    1.173
   103   7 N    3.347 --    99 C    1.214   102 C    1.198    61 Co   0.638
   104   1 H    0.999 --    62 C    0.969
   105   1 H    0.997 --    64 C    0.974
   106   1 H    1.002 --    65 C    0.973
   107   1 H    1.003 --    70 C    0.971
   108   1 H    1.006 --    71 C    0.965
   109   1 H    1.006 --    76 C    0.964
   110   1 H    1.003 --    77 C    0.971
   111   1 H    1.002 --    79 C    0.973
   112   1 H    1.001 --    80 C    0.973
   113   1 H    1.001 --    85 C    0.973
   114   1 H    1.002 --    86 C    0.973
   115   1 H    1.003 --    91 C    0.971
   116   1 H    1.006 --    92 C    0.964
   117   1 H    1.006 --    97 C    0.964
   118   1 H    1.003 --    98 C    0.971
   119   1 H    1.002 --   100 C    0.973
   120   1 H    0.997 --   101 C    0.974
   121   6 C    3.920 --   122 C    2.361   125 C    1.338   124 C    0.189
   122   6 C    3.920 --   121 C    2.361   123 C    1.339   126 C    0.189
   123   6 C    3.931 --   124 C    2.444   122 C    1.339
   124   6 C    3.885 --   123 C    2.444    23 C    1.191   121 C    0.189
   125   6 C    3.931 --   126 C    2.444   121 C    1.338
   126   6 C    3.885 --   125 C    2.444    83 C    1.191   122 C    0.189
 ---------------------------------------------------------------------------

           -------------------------------------------------
          | TOTAL ENERGY             -248.616878898152 Eh   |
          | GRADIENT NORM               0.000658012147 Eh/α |
          | HOMO-LUMO GAP               0.004846450867 eV   |
           -------------------------------------------------

 * finished run on 2022/07/30 at 01:46:55.223
