   * xtb version 6.5.1 (b24c23e) compiled by 'conda@728c89f4b128' on 2022-07-12
          program call               : xtb Fe_DHP_C6_3.xyz --gfn 1 --opt -T 48

   ID    Z sym.   atoms
    1   26 Fe     1, 59, 129
    2    6 C      2-6, 8-11, 13-17, 19-24, 26-29, 31-36, 60-64, 66-69, 71-75,
                  77-82, 84-87, 89-94, 117-128, 130-134, 136-139, 141-145,
                  147-152, 154-157, 159-164
    3    7 N      7, 12, 18, 25, 30, 37, 65, 70, 76, 83, 88, 95, 135, 140,
                  146, 153, 158, 165
    4    1 H      38-58, 96-116, 166-185
########################################################################
[WARNING] Please study the warnings concerning your input carefully
-1- prog_main_parseArguments: Unknown option '-T' provided
########################################################################

          :  Hamiltonian                  GFN1-xTB          :
 * total energy  :  -314.3320789 Eh     change       -0.1305563E-07 Eh
 * total energy  :  -314.5419280 Eh     change       -0.2098491E+00 Eh
 * total energy  :  -314.6980361 Eh     change       -0.1561080E+00 Eh
 * total energy  :  -314.7788350 Eh     change       -0.8079893E-01 Eh
 * total energy  :  -314.8325132 Eh     change       -0.5367816E-01 Eh
 * total energy  :  -314.8746046 Eh     change       -0.4209140E-01 Eh
 * total energy  :  -314.9141493 Eh     change       -0.3954477E-01 Eh
 * total energy  :  -314.9565643 Eh     change       -0.4241501E-01 Eh
 * total energy  :  -314.9859623 Eh     change       -0.2939797E-01 Eh
 * total energy  :  -315.0045757 Eh     change       -0.1861337E-01 Eh
 * total energy  :  -315.0888580 Eh     change       -0.9267895E-06 Eh
 * total energy  :  -315.0888555 Eh     change        0.2495541E-05 Eh
 * total energy  :  -315.0888738 Eh     change       -0.1829485E-04 Eh
 * total energy  :  -315.0887352 Eh     change        0.1386062E-03 Eh
 * total energy  :  -315.0888698 Eh     change       -0.1346303E-03 Eh
 * total energy  :  -315.0888903 Eh     change       -0.2048854E-04 Eh
 * total energy  :  -315.0888762 Eh     change        0.1412397E-04 Eh
 * total energy  :  -315.0888971 Eh     change       -0.2088279E-04 Eh
 * total energy  :  -315.0888996 Eh     change       -0.2523696E-05 Eh
   *** GEOMETRY OPTIMIZATION CONVERGED AFTER 76 ITERATIONS ***

 final structure:
================
185
 xtb: 6.5.1 (b24c23e)
Fe          25.33007687300759        0.24117156798897        0.12080354373758
C           21.94133958958976        0.21281245181773        0.07254342607533
C           22.59499024745911       -0.99775037384056        0.17671237432971
C           21.92063293767624       -2.25460630492474        0.30254752710350
C           22.87886663735532       -3.21100307896416        0.29868295360713
C           24.13746909286459       -2.53766987955346        0.15128439704833
N           23.95155750644852       -1.18100938378538        0.12001455659784
C           25.35682629295096       -3.18819699684126        0.00433679104700
C           25.37756158338545       -4.66925052128340       -0.04252411504849
C           24.73503067027524       -5.35307627720813       -1.00336522322219
C           24.73435269157937       -6.85625044231975       -1.07389261612379
N           25.72576870563689       -7.43577198863522       -0.16661715011678
C           26.24118714975826       -6.72761913068900        0.88051559598426
C           26.12996941004227       -5.38827958328229        0.97176032138273
C           26.56254819368450       -2.50832786839930       -0.10954634172267
C           27.82308639613547       -3.15227720358327       -0.33186602369049
C           28.76689126903728       -2.18066785406019       -0.31764575515659
N           26.73411088964179       -1.15002245412847        0.00130713511348
C           28.08081624744726       -0.94712433906806       -0.09072025404096
C           28.73908328101424        0.27315633026107        0.08788556291475
C           28.06237208229494        1.47871529739241        0.29777657564357
C           28.72967248805546        2.71834493870972        0.54642941533424
C           27.76693464475839        3.66789387820646        0.62675915809659
C           26.51416407141164        3.00649157155474        0.41172193464590
N           26.71012550225266        1.65628743517266        0.24854775676542
C           25.29467357834990        3.66588456390906        0.33277268855067
C           25.28021459651020        5.14340581147527        0.44661806706391
C           24.61526955771446        5.76397022599557        1.43481134668463
C           24.57410963487868        7.26150036560136        1.57646351895322
N           25.55195816724011        7.90968119351247        0.70137184572959
C           26.08835838816712        7.26560031471170       -0.37634567859436
C           26.01510433416108        5.92938960631504       -0.53012177108760
C           24.08977698290120        2.99887729956799        0.14350436108719
C           22.82468186595939        3.65587350934021       -0.02079799515725
C           21.88553408491491        2.68405875168800       -0.10123758861139
C           22.57749250487504        1.43511988597266        0.00765303042807
N           23.92784582285972        1.63946951398605        0.12030996190723
H           20.85726343109408        0.20354605177624        0.05142719573809
H           20.85141971579992       -2.36976731797974        0.38641994824335
H           22.75687323533259       -4.27820641210524        0.39010204360266
H           24.17312245562651       -4.84975654336256       -1.78143682016353
H           24.96878514602908       -7.18782181664109       -2.09560537173475
H           23.73005771897100       -7.24835909000869       -0.82941941217442
H           25.67147811562776       -8.43799465600460       -0.06554897913395
H           26.80447053891853       -7.31803590256844        1.59602464013053
H           26.58173586743118       -4.84207994231939        1.78745289754413
H           27.95742710422688       -4.21118574731209       -0.48247177041817
H           29.83345372570255       -2.27474972332739       -0.44473186231112
H           29.79727883432557        2.83095481240161        0.64669472650407
H           27.88440734266116        4.72291313503005        0.81418019018855
H           24.06246575238774        5.20953685074713        2.18416284125441
H           24.79686475518444        7.55055690916012        2.61359245745333
H           23.56019915667783        7.63763196257070        1.34695497516995
H           25.46875726606089        8.91351347774480        0.64570173805121
H           26.63590169291020        7.90423105398534       -1.06204790465371
H           26.48214437032318        5.43501443508633       -1.36990474919603
H           22.68656194204974        4.72369742546148       -0.07443076670200
H           20.81823915423179        2.78412928531444       -0.22111008890316
Fe          57.22741216981491        0.13895000384654        0.14129950973149
C           60.60678824805575        0.31936370689566        0.15562945926511
C           59.89775012183948        1.44810968700054        0.51288153320232
C           60.50763686488779        2.67587634643901        0.92648861886190
C           59.50724805392760        3.57710265211925        1.07094622699206
C           58.28757602698382        2.90283038235944        0.72924870478374
N           58.53666739546935        1.58770203643826        0.43958652237961
C           57.04788599050515        3.52512340027785        0.63443379923427
C           56.96076714186340        4.98796922042415        0.84998403725723
C           57.63569805577637        5.85610728500144        0.07860085667510
C           57.57148643566079        7.34613293545916        0.27913798973658
N           56.48503776184740        7.71820459014683        1.18648483315372
C           55.93536693642127        6.81578644078745        2.05178362869609
C           56.10674490566530        5.48691719709421        1.91506501958356
C           55.88157056129094        2.82895766642017        0.34276094576665
C           54.60016489980449        3.44658467137482        0.17174217534372
C           53.70044567708509        2.44553930627668        0.01611004213421
N           55.76867207509920        1.46399791645043        0.23901135447991
C           54.43436175735770        1.22055358632958        0.08581998616137
C           53.82890519355499       -0.04026599711500        0.11374755944955
C           54.56022063097076       -1.23098097325107        0.14983040892477
C           53.95731202868912       -2.52570808411110        0.21134584317856
C           54.96029953533029       -3.42746927896313        0.08021829729770
C           56.17331632500652       -2.67935606061461       -0.06922847804724
N           55.91552679828922       -1.33344845468346        0.02224800823590
C           57.41261154984668       -3.24920726924922       -0.33289551918747
C           57.49085255430406       -4.71549317752357       -0.52899084548088
C           58.24143693287798       -5.49210845623515        0.26969744345385
C           58.35126727555702       -6.98221498962860        0.09207216472333
N           57.35193905984178       -7.48527368398450       -0.85141617938587
C           56.71957752410036       -6.66033715426709       -1.73630825237829
C           56.72608003702975       -5.31951991011975       -1.60687548358852
C           58.58004678365459       -2.49881963798129       -0.41881230171011
C           59.86773135144280       -3.04200595166013       -0.74474978665746
C           60.76486940075800       -2.03768890807767       -0.60273277067141
C           60.02430526178957       -0.87900080503462       -0.20331534598387
N           58.68515329400182       -1.16246279090621       -0.13900821447432
H           61.68953444163128        0.37701420569825        0.15961860913784
H           61.56638199902682        2.81162009089246        1.08189324999734
H           59.57664624786744        4.60675072408014        1.38282612132399
H           58.27264107376565        5.52162324727069       -0.73187857099826
H           57.40294365554509        7.85105722949774       -0.68268635169147
H           58.53398286828865        7.71866565114627        0.67557389818671
H           56.48517390920482        8.68673509827752        1.46899261963292
H           55.29467931410511        7.24776404871969        2.81384916276004
H           55.62810982376443        4.78793480627351        2.58601746777752
H           54.42200441953567        4.50974348158976        0.17133213870512
H           52.63429478551508        2.51514416267987       -0.12857821281234
H           52.90101552714077       -2.70436663641785        0.33417989509068
H           54.89523248726642       -4.50354199866863        0.08322856606087
H           58.81803860915123       -5.07706811305290        1.08811033074500
H           58.20140799455005       -7.49106587796517        1.05521374849340
H           59.36461605091593       -7.24934422254443       -0.25984093978929
H           57.47414169113776       -8.44908250869563       -1.12297274933784
H           56.15684636478073       -7.17047525653206       -2.51150493983516
H           56.18478716725191       -4.68712448612599       -2.29597275378624
H           60.04918683769157       -4.06096619591675       -1.04649377752353
H           61.83323198907384       -2.06076393940251       -0.74968243033881
C           33.93955323561834        0.36030041891542        0.13529707438894
C           32.71185976240433        0.32907473416238        0.09908276923122
C           31.36767078348596        0.30341446379468        0.07878386688722
C           30.14380718395809        0.28702281853354        0.07667372696381
C           35.28160907755834        0.40890643534607        0.19556106945168
C           36.50219394641509        0.46868141359154        0.27040140399499
C           49.85748966396622       -0.09384888216678        0.16409532000918
C           48.63074206649486       -0.03540465832964        0.19631337531552
C           47.29086024473281        0.06165734725759        0.24818491574313
C           46.07418709183516        0.18269975223088        0.31073488774069
C           51.20172365544731       -0.11277539404434        0.13523022106327
C           52.42542892896378       -0.10018944262466        0.11362575878782
Fe          41.29750029706449        0.68504102735233        0.55971949244670
C           37.89957725999285        0.54962609912233        0.37061876101365
C           38.57677636258745        1.48257360536196       -0.42618725736067
C           37.91689942522106        2.44594971681558       -1.24944183950011
C           38.88963626307542        3.16440345877207       -1.86253252695824
C           40.14105157962014        2.60457024494613       -1.44634763614150
N           39.92968920367709        1.60353880137569       -0.52817517780249
C           41.37239027778911        2.94457711608683       -1.99121960389123
C           41.43463784549062        3.98108898178514       -3.04654548765599
C           40.78108922878172        3.84802773386894       -4.21264344170736
C           40.87657926898232        4.86380264424577       -5.31816813493530
N           41.47226116353578        6.11420883511172       -4.84502709246330
C           42.24589851532103        6.15351859949422       -3.71947574202878
C           42.24581880461948        5.16313749427511       -2.80723496562896
C           42.55873110961470        2.31251500504956       -1.62978689370255
C           43.80196146726065        2.49317921477540       -2.31740033472210
C           44.71437612949029        1.71201963262687       -1.68880615466317
N           42.70891853341548        1.41743148677575       -0.60255688610861
C           44.03146914470793        1.07766505180308       -0.60497886879702
C           44.68263673215680        0.34576642848896        0.39327323389296
C           44.01594999834569       -0.14272367121547        1.52469926403416
C           44.68787981512970       -0.68158382846252        2.66459340992581
C           43.72626134236310       -1.01906849163854        3.55887270222190
C           42.46683520420094       -0.73109127236553        2.93971356219969
N           42.66630460478776       -0.15029352972510        1.70968594823827
C           41.23319901689545       -1.10408794144396        3.45777304596759
C           41.17453894338235       -1.79516676439016        4.76602431703374
C           41.78925714212399       -2.96934065999933        4.98377857026985
C           41.74350719792209       -3.68109882135000        6.30884877076570
N           40.75145633288596       -3.08609432022406        7.20552137618033
C           40.25445350671716       -1.83209709668858        6.99937417090312
C           40.40094681940931       -1.17861631008451        5.83076620109128
C           40.03670961663927       -0.90072010042514        2.77615823379748
C           38.78335725537973       -1.46605992655657        3.17691714543200
C           37.86356060406282       -1.06541458254423        2.26541752366105
C           38.55191461623016       -0.23231601684894        1.32929685159266
N           39.88407803988667       -0.17367834184057        1.62423487116698
H           36.84731396265077        2.55974009473027       -1.32434376805176
H           38.77748538175438        3.99488782281663       -2.54034821694010
H           40.20601336853399        2.95931418607416       -4.44483353007157
H           41.47029356840709        4.45865638331484       -6.15846757704236
H           39.87509106682379        5.08877868632838       -5.71115925198212
H           41.68914692113974        6.77744932446350       -5.57397055760353
H           42.79981669403202        7.07636499994240       -3.58045710123280
H           42.81425523619637        5.24285853264013       -1.89162547247569
H           43.94466095598364        3.12510149629016       -3.17919502776751
H           45.76053055147601        1.58233304359251       -1.91518250188683
H           45.75831435589166       -0.76417108623025        2.76418148685725
H           43.85202851542211       -1.43041933868263        4.54711430798921
H           42.35614711563959       -3.46890615818257        4.20698997207510
H           42.73980403760592       -3.65710258604666        6.78685489187297
H           41.48328858181430       -4.73930393378139        6.16159948508842
H           40.78463166185966       -3.42162910514068        8.15617269885009
H           39.67793119994428       -1.42947512662787        7.82601399482155
H           39.96143376128585       -0.20403837805102        5.67347963998945
H           38.63928880892064       -2.09919140044385        4.03745594463258
H           36.80881777807218       -1.28623200467855        2.23025165088604

          :  Hamiltonian                  GFN1-xTB          :
         :: total energy            -315.088899586680 Eh    ::
         :: gradient norm              0.000669437268 Eh/a0 ::
         :: HOMO-LUMO gap              0.061554005170 eV    ::
         :: SCC energy              -320.155299602352 Eh    ::
         :: repulsion energy           5.229801666799 Eh    ::

    * Orbital Energies and Occupations

         #    Occupation            Energy/Eh            Energy/eV
      -------------------------------------------------------------
         1        2.0000           -0.7885669             -21.4580
       ...           ...                  ...                  ...
       280        1.9929           -0.3743128             -10.1856
       281        1.9922           -0.3742285             -10.1833
       282        1.9782           -0.3732412             -10.1564
       283        1.9772           -0.3731990             -10.1553
       284        1.9767           -0.3731780             -10.1547
       285        1.9723           -0.3730118             -10.1502
       286        1.9620           -0.3727065             -10.1419
       287        1.9613           -0.3726901             -10.1414
       288        1.9577           -0.3726029             -10.1390
       289        1.9564           -0.3725730             -10.1382
       290        1.9247           -0.3720398             -10.1237
       291        1.8634           -0.3714432             -10.1075
       292        1.4412           -0.3698604             -10.0644 (HOMO)
       293        0.3851           -0.3675983             -10.0029 (LUMO)
       294        0.3372           -0.3674445              -9.9987
       295        0.3357           -0.3674393              -9.9985
       296                         -0.3292186              -8.9585
       297                         -0.3211255              -8.7383
       298                         -0.3185617              -8.6685
       299                         -0.3173603              -8.6358
       300                         -0.3150187              -8.5721
       301                         -0.3149485              -8.5702
       302                         -0.2969080              -8.0793
       303                         -0.2873274              -7.8186
       ...                                ...                  ...
       631                          1.5854960              43.1435
      -------------------------------------------------------------
                  HL-Gap            0.0022621 Eh            0.0616 eV

Wiberg/Mayer (AO) data.
largest (>0.10) Wiberg bond orders for each atom

     #   Z sym  total        # sym  WBO       # sym  WBO       # sym  WBO
 ---------------------------------------------------------------------------
     1  26 Fe   3.107 --     7 N    0.664    37 N    0.664    18 N    0.659
                            25 N    0.659
     2   6 C    3.928 --    36 C    1.365     3 C    1.363    38 H    0.971
     3   6 C    3.928 --     2 C    1.363     7 N    1.211     4 C    1.173
     4   6 C    3.960 --     5 C    1.649     3 C    1.173    39 H    0.975
     5   6 C    3.963 --     4 C    1.649     6 C    1.174    40 H    0.973
     6   6 C    3.923 --     8 C    1.320     7 N    1.222     5 C    1.174
     7   7 N    3.380 --     6 C    1.222     3 C    1.211     1 Fe   0.664
     8   6 C    3.933 --    15 C    1.328     6 C    1.320     9 C    1.027
     9   6 C    3.982 --    10 C    1.750    14 C    1.108     8 C    1.027
    10   6 C    3.941 --     9 C    1.750    11 C    1.015    41 H    0.971
    11   6 C    3.956 --    10 C    1.015    42 H    0.972    43 H    0.964
                            12 N    0.947
    12   7 N    3.245 --    13 C    1.177    11 C    0.947    44 H    0.925
                            14 C    0.119
    13   6 C    3.945 --    14 C    1.667    12 N    1.177    45 H    0.970
    14   6 C    3.939 --    13 C    1.667     9 C    1.108    46 H    0.974
                            12 N    0.119
    15   6 C    3.917 --     8 C    1.328    18 N    1.206    16 C    1.180
    16   6 C    3.959 --    17 C    1.639    15 C    1.180    47 H    0.972
    17   6 C    3.961 --    16 C    1.639    19 C    1.187    48 H    0.974
    18   7 N    3.383 --    19 C    1.238    15 C    1.206     1 Fe   0.659
    19   6 C    3.906 --    20 C    1.262    18 N    1.238    17 C    1.187
    20   6 C    3.935 --    19 C    1.262    21 C    1.260   120 C    1.186
    21   6 C    3.906 --    20 C    1.260    25 N    1.239    22 C    1.187
    22   6 C    3.961 --    23 C    1.639    21 C    1.187    49 H    0.974
    23   6 C    3.959 --    22 C    1.639    24 C    1.180    50 H    0.972
    24   6 C    3.917 --    26 C    1.329    25 N    1.204    23 C    1.180
    25   7 N    3.383 --    21 C    1.239    24 C    1.204     1 Fe   0.659
    26   6 C    3.933 --    24 C    1.329    33 C    1.318    27 C    1.027
    27   6 C    3.982 --    28 C    1.750    32 C    1.108    26 C    1.027
    28   6 C    3.941 --    27 C    1.750    29 C    1.015    51 H    0.971
    29   6 C    3.956 --    28 C    1.015    52 H    0.972    53 H    0.964
                            30 N    0.947
    30   7 N    3.245 --    31 C    1.177    29 C    0.947    54 H    0.925
                            32 C    0.119
    31   6 C    3.945 --    32 C    1.668    30 N    1.177    55 H    0.970
    32   6 C    3.940 --    31 C    1.668    27 C    1.108    56 H    0.973
                            30 N    0.119
    33   6 C    3.923 --    26 C    1.318    37 N    1.223    34 C    1.174
    34   6 C    3.963 --    35 C    1.649    33 C    1.174    57 H    0.974
    35   6 C    3.960 --    34 C    1.649    36 C    1.173    58 H    0.975
    36   6 C    3.928 --     2 C    1.365    37 N    1.210    35 C    1.173
    37   7 N    3.380 --    33 C    1.223    36 C    1.210     1 Fe   0.664
    38   1 H    1.001 --     2 C    0.971
    39   1 H    0.998 --     4 C    0.975
    40   1 H    1.006 --     5 C    0.973
    41   1 H    1.003 --    10 C    0.971
    42   1 H    1.013 --    11 C    0.972
    43   1 H    1.002 --    11 C    0.964
    44   1 H    0.960 --    12 N    0.925
    45   1 H    1.001 --    13 C    0.970
    46   1 H    1.003 --    14 C    0.974
    47   1 H    1.005 --    16 C    0.972
    48   1 H    1.002 --    17 C    0.974
    49   1 H    1.002 --    22 C    0.974
    50   1 H    1.005 --    23 C    0.972
    51   1 H    1.003 --    28 C    0.971
    52   1 H    1.013 --    29 C    0.972
    53   1 H    1.002 --    29 C    0.964
    54   1 H    0.960 --    30 N    0.925
    55   1 H    1.001 --    31 C    0.970
    56   1 H    1.003 --    32 C    0.973
    57   1 H    1.006 --    34 C    0.974
    58   1 H    0.998 --    35 C    0.975
    59  26 Fe   3.123 --    95 N    0.666    65 N    0.666    76 N    0.662
                            83 N    0.661
    60   6 C    3.929 --    94 C    1.364    61 C    1.364    96 H    0.971
    61   6 C    3.928 --    60 C    1.364    65 N    1.210    62 C    1.173
    62   6 C    3.959 --    63 C    1.649    61 C    1.173    97 H    0.975
    63   6 C    3.963 --    62 C    1.649    64 C    1.175    98 H    0.973
    64   6 C    3.923 --    66 C    1.319    65 N    1.221    63 C    1.175
    65   7 N    3.380 --    64 C    1.221    61 C    1.210    59 Fe   0.666
    66   6 C    3.934 --    73 C    1.327    64 C    1.319    67 C    1.029
    67   6 C    3.982 --    68 C    1.749    72 C    1.107    66 C    1.029
    68   6 C    3.940 --    67 C    1.749    69 C    1.015    99 H    0.971
    69   6 C    3.956 --    68 C    1.015   100 H    0.973   101 H    0.964
                            70 N    0.947
    70   7 N    3.243 --    71 C    1.175    69 C    0.947   102 H    0.925
                            72 C    0.119
    71   6 C    3.945 --    72 C    1.669    70 N    1.175   103 H    0.970
    72   6 C    3.940 --    71 C    1.669    67 C    1.107   104 H    0.973
                            70 N    0.119
    73   6 C    3.917 --    66 C    1.327    76 N    1.204    74 C    1.181
    74   6 C    3.959 --    75 C    1.639    73 C    1.181   105 H    0.972
    75   6 C    3.961 --    74 C    1.639    77 C    1.187   106 H    0.974
    76   7 N    3.384 --    77 C    1.236    73 C    1.204    59 Fe   0.662
    77   6 C    3.906 --    78 C    1.260    76 N    1.236    75 C    1.187
    78   6 C    3.936 --    79 C    1.263    77 C    1.260   128 C    1.185
    79   6 C    3.907 --    78 C    1.263    83 N    1.236    80 C    1.187
    80   6 C    3.961 --    81 C    1.639    79 C    1.187   107 H    0.974
    81   6 C    3.959 --    80 C    1.639    82 C    1.180   108 H    0.973
    82   6 C    3.917 --    84 C    1.327    83 N    1.205    81 C    1.180
    83   7 N    3.383 --    79 C    1.236    82 C    1.205    59 Fe   0.661
    84   6 C    3.934 --    82 C    1.327    91 C    1.319    85 C    1.028
    85   6 C    3.982 --    86 C    1.748    90 C    1.108    84 C    1.028
    86   6 C    3.940 --    85 C    1.748    87 C    1.015   109 H    0.971
    87   6 C    3.956 --    86 C    1.015   110 H    0.972   111 H    0.964
                            88 N    0.947
    88   7 N    3.245 --    89 C    1.177    87 C    0.947   112 H    0.925
                            90 C    0.119
    89   6 C    3.945 --    90 C    1.667    88 N    1.177   113 H    0.970
    90   6 C    3.939 --    89 C    1.667    85 C    1.108   114 H    0.973
                            88 N    0.119
    91   6 C    3.924 --    84 C    1.319    95 N    1.221    92 C    1.174
    92   6 C    3.963 --    93 C    1.649    91 C    1.174   115 H    0.973
    93   6 C    3.960 --    92 C    1.649    94 C    1.173   116 H    0.975
    94   6 C    3.928 --    60 C    1.364    95 N    1.209    93 C    1.173
    95   7 N    3.380 --    91 C    1.221    94 C    1.209    59 Fe   0.666
    96   1 H    1.001 --    60 C    0.971
    97   1 H    0.998 --    62 C    0.975
    98   1 H    1.006 --    63 C    0.973
    99   1 H    1.004 --    68 C    0.971
   100   1 H    1.013 --    69 C    0.973
   101   1 H    1.002 --    69 C    0.964
   102   1 H    0.961 --    70 N    0.925
   103   1 H    1.001 --    71 C    0.970
   104   1 H    1.003 --    72 C    0.973
   105   1 H    1.005 --    74 C    0.972
   106   1 H    1.002 --    75 C    0.974
   107   1 H    1.002 --    80 C    0.974
   108   1 H    1.005 --    81 C    0.973
   109   1 H    1.003 --    86 C    0.971
   110   1 H    1.013 --    87 C    0.972
   111   1 H    1.002 --    87 C    0.964
   112   1 H    0.960 --    88 N    0.925
   113   1 H    1.001 --    89 C    0.970
   114   1 H    1.003 --    90 C    0.973
   115   1 H    1.006 --    92 C    0.973
   116   1 H    0.998 --    93 C    0.975
   117   6 C    3.921 --   118 C    2.365   121 C    1.336   120 C    0.189
   118   6 C    3.919 --   117 C    2.365   119 C    1.335   122 C    0.188
   119   6 C    3.932 --   120 C    2.448   118 C    1.335
   120   6 C    3.883 --   119 C    2.448    20 C    1.186   117 C    0.189
   121   6 C    3.927 --   122 C    2.443   117 C    1.336
   122   6 C    3.885 --   121 C    2.443   130 C    1.192   118 C    0.188
   123   6 C    3.918 --   124 C    2.366   127 C    1.334   126 C    0.188
   124   6 C    3.921 --   123 C    2.366   125 C    1.335   128 C    0.189
   125   6 C    3.927 --   126 C    2.444   124 C    1.335
   126   6 C    3.885 --   125 C    2.444   148 C    1.192   123 C    0.188
   127   6 C    3.933 --   128 C    2.449   123 C    1.334
   128   6 C    3.883 --   127 C    2.449    78 C    1.185   124 C    0.189
   129  26 Fe   3.095 --   165 N    0.656   146 N    0.654   153 N    0.650
                           135 N    0.650
   130   6 C    3.918 --   164 C    1.263   131 C    1.248   122 C    1.192
   131   6 C    3.909 --   135 N    1.249   130 C    1.248   132 C    1.191
   132   6 C    3.961 --   133 C    1.634   131 C    1.191   166 H    0.974
   133   6 C    3.960 --   132 C    1.634   134 C    1.181   167 H    0.973
   134   6 C    3.918 --   136 C    1.330   135 N    1.200   133 C    1.181
   135   7 N    3.371 --   131 C    1.249   134 C    1.200   129 Fe   0.650
   136   6 C    3.924 --   134 C    1.330   143 C    1.311   137 C    1.030
   137   6 C    3.982 --   138 C    1.746   142 C    1.107   136 C    1.030
   138   6 C    3.943 --   137 C    1.746   139 C    1.016   168 H    0.971
   139   6 C    3.957 --   138 C    1.016   170 H    0.972   169 H    0.964
                           140 N    0.948
   140   7 N    3.246 --   141 C    1.174   139 C    0.948   171 H    0.925
                           142 C    0.121
   141   6 C    3.947 --   142 C    1.672   140 N    1.174   172 H    0.970
   142   6 C    3.944 --   141 C    1.672   137 C    1.107   173 H    0.973
                           140 N    0.121
   143   6 C    3.914 --   136 C    1.311   146 N    1.215   144 C    1.184
   144   6 C    3.961 --   145 C    1.635   143 C    1.184   174 H    0.973
   145   6 C    3.960 --   144 C    1.635   147 C    1.188   175 H    0.974
   146   7 N    3.372 --   147 C    1.234   143 C    1.215   129 Fe   0.654
   147   6 C    3.907 --   148 C    1.263   146 N    1.234   145 C    1.188
   148   6 C    3.918 --   147 C    1.263   149 C    1.249   126 C    1.192
   149   6 C    3.909 --   148 C    1.249   153 N    1.248   150 C    1.191
   150   6 C    3.960 --   151 C    1.634   149 C    1.191   176 H    0.974
   151   6 C    3.960 --   150 C    1.634   152 C    1.182   177 H    0.973
   152   6 C    3.918 --   154 C    1.329   153 N    1.201   151 C    1.182
   153   7 N    3.370 --   149 C    1.248   152 C    1.201   129 Fe   0.650
   154   6 C    3.924 --   152 C    1.329   161 C    1.312   155 C    1.030
   155   6 C    3.982 --   156 C    1.747   160 C    1.107   154 C    1.030
   156   6 C    3.941 --   155 C    1.747   157 C    1.016   178 H    0.971
   157   6 C    3.956 --   156 C    1.016   180 H    0.972   179 H    0.964
                           158 N    0.947
   158   7 N    3.249 --   159 C    1.178   157 C    0.947   181 H    0.925
                           160 C    0.122
   159   6 C    3.946 --   160 C    1.668   158 N    1.178   182 H    0.970
   160   6 C    3.941 --   159 C    1.668   155 C    1.107   183 H    0.974
                           158 N    0.122
   161   6 C    3.913 --   154 C    1.312   165 N    1.214   162 C    1.183
   162   6 C    3.961 --   163 C    1.637   161 C    1.183   184 H    0.973
   163   6 C    3.960 --   162 C    1.637   164 C    1.187   185 H    0.974
   164   6 C    3.907 --   130 C    1.263   165 N    1.233   163 C    1.187
   165   7 N    3.372 --   164 C    1.233   161 C    1.214   129 Fe   0.656
   166   1 H    1.002 --   132 C    0.974
   167   1 H    1.007 --   133 C    0.973
   168   1 H    1.003 --   138 C    0.971
   169   1 H    1.003 --   139 C    0.964
   170   1 H    1.013 --   139 C    0.972
   171   1 H    0.961 --   140 N    0.925
   172   1 H    1.001 --   141 C    0.970
   173   1 H    1.003 --   142 C    0.973
   174   1 H    1.004 --   144 C    0.973
   175   1 H    1.002 --   145 C    0.974
   176   1 H    1.002 --   150 C    0.974
   177   1 H    1.006 --   151 C    0.973
   178   1 H    1.004 --   156 C    0.971
   179   1 H    1.002 --   157 C    0.964
   180   1 H    1.013 --   157 C    0.972
   181   1 H    0.960 --   158 N    0.925
   182   1 H    1.001 --   159 C    0.970
   183   1 H    1.003 --   160 C    0.974
   184   1 H    1.004 --   162 C    0.973
   185   1 H    1.002 --   163 C    0.974
 ---------------------------------------------------------------------------

           -------------------------------------------------
          | TOTAL ENERGY             -315.088899586680 Eh   |
          | GRADIENT NORM               0.000669437268 Eh/α |
          | HOMO-LUMO GAP               0.061554005170 eV   |
           -------------------------------------------------

 * finished run on 2022/07/29 at 20:00:38.467
