   * xtb version 6.5.1 (b24c23e) compiled by 'conda@728c89f4b128' on 2022-07-12
          program call               : xtb Py_C2_2.xyz --gfn 1 --opt -T 48

   ID    Z sym.   atoms
    1    6 C      1-5, 7-10, 12-16, 18-23, 25-28, 30-35, 56-60, 62-65, 67-71,
                  73-78, 80-83, 85-90, 111, 112
    2    7 N      6, 11, 17, 24, 29, 36, 61, 66, 72, 79, 84, 91
    3    1 H      37-55, 92-110
########################################################################
[WARNING] Please study the warnings concerning your input carefully
-1- prog_main_parseArguments: Unknown option '-T' provided
########################################################################

          :  Hamiltonian                  GFN1-xTB          :
 * total energy  :  -188.7659744 Eh     change       -0.2967766E-08 Eh
 * total energy  :  -189.3718439 Eh     change       -0.6058695E+00 Eh
 * total energy  :  -189.5281372 Eh     change       -0.1562933E+00 Eh
 * total energy  :  -189.5912154 Eh     change       -0.6307826E-01 Eh
 * total energy  :  -189.6225694 Eh     change       -0.3135396E-01 Eh
 * total energy  :  -189.6374335 Eh     change       -0.1486414E-01 Eh
 * total energy  :  -189.6464255 Eh     change       -0.8991997E-02 Eh
 * total energy  :  -189.6517491 Eh     change       -0.5323543E-02 Eh
 * total energy  :  -189.6552598 Eh     change       -0.3510701E-02 Eh
 * total energy  :  -189.6578949 Eh     change       -0.2635174E-02 Eh
 * total energy  :  -189.6719147 Eh     change       -0.5148134E-05 Eh
 * total energy  :  -189.6719199 Eh     change       -0.5189006E-05 Eh
 * total energy  :  -189.6719251 Eh     change       -0.5253611E-05 Eh
 * total energy  :  -189.6719307 Eh     change       -0.5542331E-05 Eh
 * total energy  :  -189.6719367 Eh     change       -0.6036689E-05 Eh
 * total energy  :  -189.6719434 Eh     change       -0.6719033E-05 Eh
 * total energy  :  -189.6719501 Eh     change       -0.6643494E-05 Eh
 * total energy  :  -189.6719555 Eh     change       -0.5441442E-05 Eh
 * total energy  :  -189.6719595 Eh     change       -0.3933011E-05 Eh
   *** GEOMETRY OPTIMIZATION CONVERGED AFTER 65 ITERATIONS ***

 final structure:
================
112
 xtb: 6.5.1 (b24c23e)
C           10.35177065169152        0.11059075667423        0.05012912999123
C           10.96580171367179        1.33676011794130        0.26902298572438
C           10.32423072091257        2.59272088824079        0.45920293575231
C           11.29319456595116        3.53254343992552        0.67085942571997
C           12.55783666365424        2.87798568050890        0.63108983905754
N           12.31010679110585        1.56089910298264        0.36755175731315
C           13.82263537770261        3.44063418550988        0.83318951464504
C           13.86582562161651        4.88587892584596        1.15600328221728
C           14.56051918759640        5.78335344943094        0.34490502544919
C           14.56975044588486        7.12848927980546        0.67727122390013
N           13.94616229696795        7.61495486654300        1.74577681847942
C           13.28563987818363        6.76641640713698        2.52684308720794
C           13.21478673653776        5.40536936418392        2.27458194236983
C           15.03454611237602        2.74787585731825        0.75904126067653
C           16.31751313238204        3.33450352919058        1.10025932315229
C           17.24239206728438        2.37524612290988        0.88994633135134
N           15.20023216902629        1.45231821210183        0.37639440948346
C           16.52697418982987        1.20714096377298        0.41789180813374
C           17.17437177553952        0.01731746392317        0.02563779975745
C           16.52850625734706       -1.17046514549309       -0.36965028758530
C           17.15194141524586       -2.35959419980700       -0.82890337606645
C           16.17742920531586       -3.29312890992427       -1.04834383845810
C           14.92482098049603       -2.70137740708518       -0.72775280679593
N           15.18633762583176       -1.41328702900924       -0.34259032808573
C           13.66335001886372       -3.30371746115132       -0.79847242638031
C           13.63407193925697       -4.74020993180365       -1.15773220170591
C           14.29232072467012       -5.69413739321388       -0.38136831087142
C           14.23465413292624       -7.02744430372068       -0.75473029785449
N           13.58077402338597       -7.45050186915490       -1.83185026307767
C           12.95281251060342       -6.54810933448510       -2.57897157621895
C           12.94866899778856       -5.19394318425172       -2.28454237571317
C           12.44741642730532       -2.65473225952825       -0.56168675099501
C           11.14911685020147       -3.31136275728177       -0.58650800248468
C           10.23132084849440       -2.35171509709891       -0.35406085976293
C           10.96834233239234       -1.11319456458375       -0.17466808113035
N           12.30050675332000       -1.33699966643723       -0.28793337195235
H            9.26660873378701        0.11941834054158        0.05489795945335
H            9.25713136512964        2.74498210899894        0.42976580047125
H           11.15015166771491        4.58834971352961        0.83406043841229
H           13.02727669440841        0.85101579047111        0.26380439770234
H           15.07307468057614        5.43353110910956       -0.54327339298124
H           15.09987822651126        7.84625306330009        0.05810415162216
H           12.79030306858972        7.19284344451528        3.39427686101708
H           12.67675158656767        4.75028009702229        2.94946615067314
H           16.46665237950877        4.33559650023646        1.47098613498822
H           18.30654233444050        2.42547156317326        1.04966994840925
H           18.21120902003884       -2.47641390421448       -0.98379608351530
H           16.31093608223529       -4.29831903025172       -1.41329170762359
H           14.47595897451474       -0.73940985522547       -0.07689081768289
H           14.82666183241734       -5.39795914285374        0.51359699184353
H           14.73535367043971       -7.78809266997849       -0.16281591659743
H           12.42980156685542       -6.92390384321392       -3.45352424901302
H           12.43451952451800       -4.49324407812045       -2.93146936391723
H           10.98780583506182       -4.36503915907862       -0.74773049670391
H            9.15801717903282       -2.44288726658798       -0.29602373224068
C           28.03514045038223       -0.12047969143376       -0.00635137178486
C           27.42134724944893       -1.31089199632495       -0.37325234075603
C           28.06315566363654       -2.51434463202962       -0.77945583947833
C           27.09438390646394       -3.44700192041554       -1.02152244356508
C           25.82962275532017       -2.84717096764651       -0.75707320777594
N           26.07709225642692       -1.55556125265839       -0.38823260970235
C           24.56495806564502       -3.44020607396800       -0.83499654928822
C           24.52213487230374       -4.87283504451713       -1.20990172297627
C           23.82761260550554       -5.29936843574118       -2.34200090365370
C           23.81879338839984       -6.64735554627544       -2.66261826619550
N           24.44261785864208       -7.56899179692220       -1.93553937058427
C           25.10296131995847       -7.17221755017670       -0.85254065422961
C           25.17341501620642       -5.84675417263844       -0.45342898720165
C           23.35289427365117       -2.79068283616954       -0.58368048325453
C           22.07004405456296       -3.46867830565112       -0.54918294395066
C           21.14494934133890       -2.51978385324391       -0.29696686670419
N           23.18692467957070       -1.46375860230691       -0.33057098118103
C           21.86013178263168       -1.26506565013054       -0.18150689490442
C           21.21251501633803       -0.02783254389642        0.01470700712628
C           21.85816182449063        1.20920429489400        0.20736393678531
C           21.23448648505597        2.47651289587809        0.34362807053226
C           22.20878578390074        3.40705248470106        0.57630550607523
C           23.46151899071991        2.73442502322690        0.59036558420894
N           23.20027881774478        1.41291907150168        0.34277868450342
C           24.72285657809014        3.30254759791175        0.80341837827422
C           24.75176255741946        4.74403654965321        1.14209242749453
C           24.09328041256819        5.23621791403146        2.26911486564766
C           24.15050919968144        6.59247226948795        2.54792277072977
N           24.80422615178317        7.46208945197771        1.78428108465323
C           25.43242122020172        7.00231282557911        0.70686766104901
C           25.43696313834925        5.66369752723891        0.34832199086377
C           25.93894310482333        2.61747075767969        0.71658290460773
C           27.23712452085133        3.21281309418529        0.99523668780135
C           28.15511919478351        2.25350004620272        0.76219275158823
C           27.41833241819243        1.07022145175621        0.35437818481215
N           26.08610734552801        1.32071068656156        0.35643438525221
H           29.12030203115557       -0.13028094774644       -0.00617192873032
H           29.13027493118558       -2.63597596639042       -0.87545576652058
H           27.23763110732475       -4.46030473194026       -1.35993232882051
H           25.35979214973672       -0.87713807226890       -0.15531377685933
H           23.31487626636515       -4.58175427914991       -2.97135038637337
H           23.28879228396389       -7.00199306872285       -3.54177774868801
H           25.59852855838325       -7.94842610880531       -0.27673308884260
H           25.71135324257100       -5.57334970948231        0.44655271537980
H           21.92112376007763       -4.52842914151756       -0.67810372474288
H           20.08079182808508       -2.63776391404613       -0.17817014280210
H           20.17521107091086        2.65112600572750        0.25924344851976
H           22.07505920099198        4.46773536136740        0.71226555574888
H           23.91080023986669        0.69231946971391        0.27040039991725
H           23.55909921283426        4.56285158875627        2.92898620850695
H           23.64969492781930        6.99735755610362        3.42250034244421
H           25.95522777749594        7.73710439808729        0.10159616085957
H           25.95124235535080        5.33729736858789       -0.54767974831373
H           27.39823709220072        4.22334722862358        1.33452159632322
H           29.22842144236215        2.30821515833244        0.85541424775257
C           18.58439953975246        0.00243910819051        0.02209169862210
C           19.80248511734636       -0.01315925515859        0.01829900228478

          :  Hamiltonian                  GFN1-xTB          :
         :: total energy            -189.671959460483 Eh    ::
         :: gradient norm              0.000187434077 Eh/a0 ::
         :: HOMO-LUMO gap              0.990803651538 eV    ::
         :: SCC energy              -192.687140935718 Eh    ::
         :: repulsion energy           3.112730203009 Eh    ::

    * Orbital Energies and Occupations

         #    Occupation            Energy/Eh            Energy/eV
      -------------------------------------------------------------
         1        2.0000           -0.8092468             -22.0207
       ...           ...                  ...                  ...
       161        2.0000           -0.4237020             -11.5295
       162        2.0000           -0.4230531             -11.5119
       163        2.0000           -0.4230208             -11.5110
       164        2.0000           -0.4212824             -11.4637
       165        2.0000           -0.4211660             -11.4605
       166        2.0000           -0.4206187             -11.4456
       167        2.0000           -0.4206028             -11.4452
       168        2.0000           -0.4194755             -11.4145
       169        2.0000           -0.4194398             -11.4135
       170        2.0000           -0.4045660             -11.0088
       171        2.0000           -0.4040633             -10.9951
       172        2.0000           -0.3966359             -10.7930
       173        2.0000           -0.3835149             -10.4360 (HOMO)
       174                         -0.3471035              -9.4452 (LUMO)
       175                         -0.3378307              -9.1928
       176                         -0.3376262              -9.1873
       177                         -0.3300030              -8.9798
       178                         -0.3060784              -8.3288
       179                         -0.2982905              -8.1169
       180                         -0.2822341              -7.6800
       181                         -0.2821856              -7.6787
       182                         -0.2800364              -7.6202
       183                         -0.2781337              -7.5684
       184                         -0.2715282              -7.3887
       ...                                ...                  ...
       372                          1.3258884              36.0793
      -------------------------------------------------------------
                  HL-Gap            0.0364114 Eh            0.9908 eV

Wiberg/Mayer (AO) data.
largest (>0.10) Wiberg bond orders for each atom

     #   Z sym  total        # sym  WBO       # sym  WBO       # sym  WBO
 ---------------------------------------------------------------------------
     1   6 C    3.925 --    35 C    1.366     2 C    1.347    37 H    0.971
     2   6 C    3.901 --     1 C    1.347     3 C    1.229     6 N    1.169
     3   6 C    3.952 --     4 C    1.596     2 C    1.229    38 H    0.976
     4   6 C    3.959 --     3 C    1.596     5 C    1.233    39 H    0.974
     5   6 C    3.897 --     7 C    1.304     4 C    1.233     6 N    1.177
     6   7 N    3.469 --     5 C    1.177     2 C    1.169    40 H    0.874
     7   6 C    3.938 --    14 C    1.330     5 C    1.304     8 C    1.033
     8   6 C    3.986 --    13 C    1.392     9 C    1.390     7 C    1.033
                            11 N    0.106
     9   6 C    3.985 --    10 C    1.443     8 C    1.390    41 H    0.973
                            12 C    0.108
    10   6 C    3.972 --     9 C    1.443    11 N    1.414    42 H    0.972
                            13 C    0.108
    11   7 N    3.028 --    12 C    1.416    10 C    1.414     8 C    0.106
    12   6 C    3.972 --    13 C    1.442    11 N    1.416    43 H    0.972
                             9 C    0.108
    13   6 C    3.986 --    12 C    1.442     8 C    1.392    44 H    0.973
                            10 C    0.108
    14   6 C    3.915 --     7 C    1.330    17 N    1.289    15 C    1.126
    15   6 C    3.965 --    16 C    1.707    14 C    1.126    45 H    0.974
    16   6 C    3.964 --    15 C    1.707    18 C    1.130    46 H    0.967
    17   7 N    3.020 --    18 C    1.341    14 C    1.289
    18   6 C    3.912 --    17 N    1.341    19 C    1.258    16 C    1.130
    19   6 C    3.938 --    18 C    1.258    20 C    1.253   111 C    1.183
    20   6 C    3.888 --    19 C    1.253    21 C    1.251    24 N    1.187
    21   6 C    3.959 --    22 C    1.581    20 C    1.251    47 H    0.968
    22   6 C    3.954 --    21 C    1.581    23 C    1.242    48 H    0.974
    23   6 C    3.899 --    25 C    1.305    22 C    1.242    24 N    1.167
    24   7 N    3.474 --    20 C    1.187    23 C    1.167    49 H    0.873
    25   6 C    3.924 --    32 C    1.321    23 C    1.305    26 C    1.034
    26   6 C    3.986 --    31 C    1.390    27 C    1.390    25 C    1.034
                            29 N    0.106
    27   6 C    3.985 --    28 C    1.443    26 C    1.390    50 H    0.973
                            30 C    0.108
    28   6 C    3.972 --    27 C    1.443    29 N    1.415    51 H    0.972
                            31 C    0.108
    29   7 N    3.028 --    28 C    1.415    30 C    1.415    26 C    0.106
    30   6 C    3.972 --    31 C    1.443    29 N    1.415    52 H    0.972
                            27 C    0.108
    31   6 C    3.986 --    30 C    1.443    26 C    1.390    53 H    0.972
                            28 C    0.108
    32   6 C    3.930 --    25 C    1.321    36 N    1.317    33 C    1.116
    33   6 C    3.967 --    34 C    1.724    32 C    1.116    54 H    0.973
    34   6 C    3.966 --    33 C    1.724    35 C    1.116    55 H    0.976
    35   6 C    3.928 --     1 C    1.366    36 N    1.300    34 C    1.116
    36   7 N    3.010 --    32 C    1.317    35 C    1.300
    37   1 H    1.002 --     1 C    0.971
    38   1 H    0.997 --     3 C    0.976
    39   1 H    1.004 --     4 C    0.974
    40   1 H    0.986 --     6 N    0.874
    41   1 H    1.004 --     9 C    0.973
    42   1 H    1.013 --    10 C    0.972
    43   1 H    1.013 --    12 C    0.972
    44   1 H    1.004 --    13 C    0.973
    45   1 H    1.004 --    15 C    0.974
    46   1 H    1.007 --    16 C    0.967
    47   1 H    1.007 --    21 C    0.968
    48   1 H    1.004 --    22 C    0.974
    49   1 H    0.987 --    24 N    0.873
    50   1 H    1.004 --    27 C    0.973
    51   1 H    1.013 --    28 C    0.972
    52   1 H    1.013 --    30 C    0.972
    53   1 H    1.004 --    31 C    0.972
    54   1 H    1.005 --    33 C    0.973
    55   1 H    0.998 --    34 C    0.976
    56   6 C    3.925 --    90 C    1.366    57 C    1.347    92 H    0.971
    57   6 C    3.901 --    56 C    1.347    58 C    1.229    61 N    1.169
    58   6 C    3.952 --    59 C    1.596    57 C    1.229    93 H    0.976
    59   6 C    3.959 --    58 C    1.596    60 C    1.233    94 H    0.974
    60   6 C    3.897 --    62 C    1.304    59 C    1.233    61 N    1.177
    61   7 N    3.469 --    60 C    1.177    57 C    1.169    95 H    0.874
    62   6 C    3.938 --    69 C    1.330    60 C    1.304    63 C    1.033
    63   6 C    3.986 --    68 C    1.392    64 C    1.390    62 C    1.033
                            66 N    0.106
    64   6 C    3.985 --    65 C    1.443    63 C    1.390    96 H    0.973
                            67 C    0.108
    65   6 C    3.972 --    64 C    1.443    66 N    1.414    97 H    0.972
                            68 C    0.108
    66   7 N    3.028 --    67 C    1.416    65 C    1.414    63 C    0.106
    67   6 C    3.972 --    68 C    1.442    66 N    1.416    98 H    0.972
                            64 C    0.108
    68   6 C    3.986 --    67 C    1.442    63 C    1.392    99 H    0.973
                            65 C    0.108
    69   6 C    3.915 --    62 C    1.330    72 N    1.289    70 C    1.126
    70   6 C    3.965 --    71 C    1.707    69 C    1.126   100 H    0.974
    71   6 C    3.964 --    70 C    1.707    73 C    1.130   101 H    0.967
    72   7 N    3.020 --    73 C    1.341    69 C    1.289
    73   6 C    3.912 --    72 N    1.341    74 C    1.258    71 C    1.130
    74   6 C    3.938 --    73 C    1.258    75 C    1.253   112 C    1.183
    75   6 C    3.888 --    74 C    1.253    76 C    1.251    79 N    1.187
    76   6 C    3.959 --    77 C    1.581    75 C    1.251   102 H    0.968
    77   6 C    3.954 --    76 C    1.581    78 C    1.242   103 H    0.974
    78   6 C    3.899 --    80 C    1.305    77 C    1.242    79 N    1.167
    79   7 N    3.474 --    75 C    1.187    78 C    1.167   104 H    0.873
    80   6 C    3.924 --    87 C    1.321    78 C    1.305    81 C    1.034
    81   6 C    3.986 --    86 C    1.390    82 C    1.390    80 C    1.034
                            84 N    0.106
    82   6 C    3.985 --    83 C    1.443    81 C    1.390   105 H    0.973
                            85 C    0.108
    83   6 C    3.972 --    82 C    1.443    84 N    1.415   106 H    0.972
                            86 C    0.108
    84   7 N    3.028 --    83 C    1.415    85 C    1.415    81 C    0.106
    85   6 C    3.972 --    86 C    1.443    84 N    1.415   107 H    0.972
                            82 C    0.108
    86   6 C    3.986 --    85 C    1.443    81 C    1.390   108 H    0.972
                            83 C    0.108
    87   6 C    3.930 --    80 C    1.321    91 N    1.317    88 C    1.116
    88   6 C    3.967 --    89 C    1.724    87 C    1.116   109 H    0.973
    89   6 C    3.966 --    88 C    1.724    90 C    1.116   110 H    0.976
    90   6 C    3.928 --    56 C    1.366    91 N    1.301    89 C    1.116
    91   7 N    3.010 --    87 C    1.317    90 C    1.301
    92   1 H    1.002 --    56 C    0.971
    93   1 H    0.997 --    58 C    0.976
    94   1 H    1.004 --    59 C    0.974
    95   1 H    0.986 --    61 N    0.874
    96   1 H    1.004 --    64 C    0.973
    97   1 H    1.013 --    65 C    0.972
    98   1 H    1.013 --    67 C    0.972
    99   1 H    1.004 --    68 C    0.973
   100   1 H    1.004 --    70 C    0.974
   101   1 H    1.007 --    71 C    0.967
   102   1 H    1.007 --    76 C    0.968
   103   1 H    1.004 --    77 C    0.974
   104   1 H    0.987 --    79 N    0.873
   105   1 H    1.004 --    82 C    0.973
   106   1 H    1.013 --    83 C    0.972
   107   1 H    1.013 --    85 C    0.972
   108   1 H    1.004 --    86 C    0.972
   109   1 H    1.005 --    88 C    0.973
   110   1 H    0.998 --    89 C    0.976
   111   6 C    3.933 --   112 C    2.573    19 C    1.183
   112   6 C    3.933 --   111 C    2.573    74 C    1.183
 ---------------------------------------------------------------------------

           -------------------------------------------------
          | TOTAL ENERGY             -189.671959460483 Eh   |
          | GRADIENT NORM               0.000187434077 Eh/α |
          | HOMO-LUMO GAP               0.990803651538 eV   |
           -------------------------------------------------

 * finished run on 2022/07/27 at 03:23:45.186
