   * xtb version 6.5.1 (b24c23e) compiled by 'conda@728c89f4b128' on 2022-07-12
          program call               : xtb Cu_C2Py_C8_2.xyz --gfn 1 --opt -T 48

   ID    Z sym.   atoms
    1   29 Cu     1, 59
    2    6 C      2-6, 8-13, 15-19, 21-26, 28-33, 35-40, 60-64, 66-71, 73-77,
                  79-84, 86-91, 93-98, 117-124
    3    7 N      7, 14, 20, 27, 34, 41, 65, 72, 78, 85, 92, 99
    4    1 H      42-58, 100-116
########################################################################
[WARNING] Please study the warnings concerning your input carefully
-1- prog_main_parseArguments: Unknown option '-T' provided
########################################################################

          :  Hamiltonian                  GFN1-xTB          :
 * total energy  :  -225.4433338 Eh     change       -0.8436615E-08 Eh
 * total energy  :  -225.7026909 Eh     change       -0.2593571E+00 Eh
 * total energy  :  -225.7784678 Eh     change       -0.7577689E-01 Eh
 * total energy  :  -225.8022762 Eh     change       -0.2380844E-01 Eh
 * total energy  :  -225.8098465 Eh     change       -0.7570257E-02 Eh
 * total energy  :  -225.8137182 Eh     change       -0.3871670E-02 Eh
 * total energy  :  -225.8163652 Eh     change       -0.2647068E-02 Eh
 * total energy  :  -225.8170171 Eh     change       -0.6518780E-03 Eh
 * total energy  :  -225.8183675 Eh     change       -0.1350375E-02 Eh
 * total energy  :  -225.8189241 Eh     change       -0.5565801E-03 Eh
 * total energy  :  -225.8217772 Eh     change       -0.2827991E-04 Eh
 * total energy  :  -225.8217924 Eh     change       -0.1522158E-04 Eh
 * total energy  :  -225.8218022 Eh     change       -0.9818611E-05 Eh
 * total energy  :  -225.8218102 Eh     change       -0.7984117E-05 Eh
 * total energy  :  -225.8218169 Eh     change       -0.6762893E-05 Eh
 * total energy  :  -225.8218249 Eh     change       -0.7965091E-05 Eh
 * total energy  :  -225.8218357 Eh     change       -0.1076483E-04 Eh
 * total energy  :  -225.8218459 Eh     change       -0.1019375E-04 Eh
 * total energy  :  -225.8218491 Eh     change       -0.3204195E-05 Eh
   *** GEOMETRY OPTIMIZATION CONVERGED AFTER 44 ITERATIONS ***

 final structure:
================
124
 xtb: 6.5.1 (b24c23e)
Cu          13.58691943552408        0.04840608119463        0.01564739861619
C           10.17030318022223        0.08158374676622        0.03844584944718
C           10.80809675967878        0.95246365769175        0.90888890803609
C           10.14114283147547        1.85302466072305        1.80521709094819
C           11.10744931354433        2.52848635993512        2.47729787727059
C           12.36893482686729        2.04383543609297        1.99500455514805
N           12.16207974881867        1.09053399684629        1.04766337518400
C           13.62225272548701        2.49472097765713        2.43926961588582
C           13.63787066393230        3.50049455765883        3.43152233430418
C           13.65041590193599        4.36725228646423        4.28064444606999
C           13.66911434218679        5.37845481830309        5.26830032234812
C           14.87549425144281        5.90946545439617        5.73979732461480
C           14.84012272450974        6.89934282734697        6.70546119517833
N           13.70812968816595        7.37816348700765        7.21546390025555
C           12.55719993421105        6.87814632632024        6.77292542524115
C           12.48310188519232        5.88730865417043        5.81028526393204
C           14.86049828801206        2.02625602172405        1.97380596629242
C           16.13189890332045        2.49488056306417        2.43820139867535
C           17.08118250798678        1.80416305697360        1.75505311744612
N           15.04618990465758        1.06520994979560        1.02251035131294
C           16.39219917391019        0.91196331271873        0.87193845363121
C           17.02585351928085        0.01737165221932       -0.00883715165837
C           16.36408723549536       -0.86668285074199       -0.87924894799270
C           17.02443288256763       -1.77320750819283       -1.76965619650173
C           16.05331108139159       -2.44929438014127       -2.43664190458453
C           14.79717692492617       -1.95645586122189       -1.95598002936760
N           15.01358964409445       -0.99606911140693       -1.01046826661673
C           13.54386665528588       -2.40326650617517       -2.40187220724502
C           13.52436907024304       -3.41647716887360       -3.38654986800524
C           13.50110404250818       -4.29151018233116       -4.22693797515262
C           13.47266049107379       -5.31239373624757       -5.20444058065040
C           14.65305708306239       -5.88469380716442       -5.69275994764661
C           14.56919344388303       -6.88247871333572       -6.64740771666349
N           13.41382582863494       -7.33138391827617       -7.13136571178885
C           12.28710566393837       -6.79253857540074       -6.67210295909171
C           12.26156832076645       -5.79089022688912       -5.71829371246679
C           12.30562668385373       -1.92534541394439       -1.94331945664154
C           11.02869830385730       -2.38562460584337       -2.40861433976791
C           10.08457814810523       -1.68982028661990       -1.72588021163781
C           10.78050048413193       -0.80137941429819       -0.83956645163870
N           12.12971141721802       -0.96621026348045       -0.99552534931965
H            9.08513995851672        0.09154397588784        0.04535809728569
H            9.07055496220304        1.94615802766663        1.89789727617555
H           10.99029163944575        3.28847470251960        3.23349035852190
H           15.82013514424922        5.54863362999726        5.35122792664023
H           15.76089789940482        7.33004258594662        7.08823206569824
H           11.65281138838689        7.29061972226834        7.21090509130288
H           11.52389002267772        5.50847741618980        5.47868882054898
H           16.27016220686458        3.25461721837486        3.19083948991698
H           18.15341083263850        1.88416627493394        1.83566338089714
H           18.09392722587285       -1.87216534990519       -1.86471657228252
H           16.16712430273113       -3.21362401134908       -3.18874613875082
H           15.61566445460273       -5.54936948250700       -5.32605298924503
H           15.46913209645901       -7.34408485770249       -7.04355867084224
H           11.36241488642960       -7.18202586679337       -7.08822823495923
H           11.32073615447089       -5.38040580959402       -5.37191223864799
H           10.88665523804163       -3.14406511635142       -3.16207978226865
H            9.01124555340832       -1.76161394824725       -1.80474994364435
Cu          32.21126939296042       -0.04178771832868       -0.03470608754504
C           35.62810589790751       -0.07798933801834       -0.04912763450988
C           34.99041302388877       -1.27107001541256       -0.35374229184116
C           35.65756864080711       -2.50114198340435       -0.67158892466950
C           34.69143295994254       -3.42439493453674       -0.90794185901966
C           33.42982704311145       -2.76308942577858       -0.73512171110709
N           33.63644009354260       -1.46154443709215       -0.39996063715155
C           32.17665890589443       -3.37695895818332       -0.89078928274307
C           32.16161106761934       -4.74462181717049       -1.24519613593529
C           32.15206703179257       -5.91822654668685       -1.55340209757897
C           32.13404964900838       -7.28467111700457       -1.91500237380702
C           30.92768597995411       -7.96457659312040       -2.11999660859653
C           30.96350054825746       -9.30162057863978       -2.47294577634456
N           32.09592326092977       -9.98283659465780       -2.62901749369593
C           33.24682965885025       -9.34376129118893       -2.43551766177575
C           33.32050996090710       -8.00855482913117       -2.08098393053865
C           30.93813130175159       -2.73875683849793       -0.72317365153214
C           29.66701780954347       -3.37980317124874       -0.88139228435912
C           28.71731668389580       -2.43931762606307       -0.63938215809148
N           30.75191032716108       -1.42848301883312       -0.38928187662579
C           29.40578874063375       -1.22175329207049       -0.33273244090739
C           28.77211354844530       -0.00567429113929       -0.02114414715443
C           29.43397565613839        1.19599123999435        0.28734446517149
C           28.77327241956390        2.42630661371208        0.60448535573538
C           29.74412085878603        3.34609114591199        0.84203346337037
C           31.00043387513951        2.67997461415764        0.66954472310584
N           30.78438068542168        1.37496008502074        0.33269400725830
C           32.25354800493361        3.29167290822627        0.82666473850268
C           32.27274331445454        4.65706580399291        1.18972037678308
C           32.29557358033956        5.82783828576987        1.50789600666127
C           32.32421853785204        7.19048328813574        1.88311534926346
C           31.14374073099919        7.90529949760276        2.11715116060480
C           31.22794266192477        9.23612052267026        2.48566374642844
N           32.38369162554850        9.87943424937005        2.63043124621785
C           33.51048665326836        9.20689962865481        2.40946641755328
C           33.53571539702704        7.87465114870906        2.03780480701856
C           33.49205805321261        2.65230864954862        0.65578476961301
C           34.76876737352114        3.28733348855533        0.81593455300102
C           35.71322322705809        2.34415181661446        0.57087734686716
C           35.01768093508599        1.12806088510126        0.26017751595872
N           33.66840258949546        1.34678515212905        0.31874529867333
H           36.71326894534683       -0.08913866493299       -0.05327511918163
H           36.72817117602911       -2.62774732660322       -0.70615037390075
H           34.80882943309670       -4.46243862850388       -1.17591571609150
H           29.98275576721752       -7.44779365167372       -2.00348621059433
H           30.04276867702012       -9.85344935321245       -2.63898192450352
H           34.15155694238754       -9.92950258866852       -2.57050290620170
H           34.27968552336056       -7.52729335420839       -1.93300044284306
H           29.52916674419937       -4.41672338271291       -1.14329719033690
H           27.64514833745881       -2.55099403581819       -0.66331958553222
H           27.70372714977506        2.55880238722350        0.63844282322664
H           29.62999063295601        4.38445044635324        1.10958017792631
H           30.18085619090995        7.42039990223349        2.01107603165312
H           30.32794812920744        9.81447933633357        2.67381522997154
H           34.43548880145800        9.76200758195037        2.53647904092278
H           34.47657854051766        7.36509692516814        1.86820430228104
H           34.91042094695104        4.32300573074917        1.08132884755363
H           36.78653574684262        2.44828347877516        0.59499657912354
C           18.43176862162006        0.00764959390589       -0.01864023259834
C           19.65610304053592        0.00801706286379       -0.01931509869537
C           20.99928091597621        0.00806922696758       -0.02168837915110
C           22.22976831965975        0.01155514970860       -0.02446892902267
C           23.56816415841775        0.01130134646525       -0.02529892163389
C           24.79865977688009        0.01299755912222       -0.02077157724166
C           26.14183970326668        0.00690221688597       -0.01729971094888
C           27.36621319041993        0.00823796818607       -0.01623011819820

          :  Hamiltonian                  GFN1-xTB          :
         :: total energy            -225.821849072483 Eh    ::
         :: gradient norm              0.000755892558 Eh/a0 ::
         :: HOMO-LUMO gap              0.000017803071 eV    ::
         :: SCC energy              -229.704093516744 Eh    ::
         :: repulsion energy           3.984069796745 Eh    ::

    * Orbital Energies and Occupations

         #    Occupation            Energy/Eh            Energy/eV
      -------------------------------------------------------------
         1        2.0000           -0.7725505             -21.0222
       ...           ...                  ...                  ...
       198        2.0000           -0.4190197             -11.4021
       199        2.0000           -0.4164403             -11.3319
       200        2.0000           -0.4164395             -11.3319
       201        2.0000           -0.4162143             -11.3258
       202        2.0000           -0.4159247             -11.3179
       203        2.0000           -0.4159233             -11.3178
       204        2.0000           -0.4158720             -11.3165
       205        2.0000           -0.4136868             -11.2570
       206        2.0000           -0.4035125             -10.9801
       207        2.0000           -0.4035116             -10.9801
       208        2.0000           -0.3944220             -10.7328
       209        2.0000           -0.3880978             -10.5607
       210        1.0002           -0.3641431              -9.9088 (HOMO)
       211        0.9998           -0.3641424              -9.9088 (LUMO)
       212                         -0.3455005              -9.4015
       213                         -0.3441329              -9.3643
       214                         -0.3441318              -9.3643
       215                         -0.3364800              -9.1561
       216                         -0.3171077              -8.6289
       217                         -0.3142789              -8.5520
       218                         -0.3035573              -8.2602
       219                         -0.2919101              -7.9433
       220                         -0.2885632              -7.8522
       221                         -0.2885570              -7.8520
       ...                                ...                  ...
       438                          1.6001703              43.5428
      -------------------------------------------------------------
                  HL-Gap            0.0000007 Eh            0.0000 eV

Wiberg/Mayer (AO) data.
largest (>0.10) Wiberg bond orders for each atom

     #   Z sym  total        # sym  WBO       # sym  WBO       # sym  WBO
 ---------------------------------------------------------------------------
     1  29 Cu   2.173 --    41 N    0.502     7 N    0.501    20 N    0.500
                            27 N    0.500
     2   6 C    3.929 --    40 C    1.364     3 C    1.364    42 H    0.971
     3   6 C    3.908 --     2 C    1.364     7 N    1.220     4 C    1.173
     4   6 C    3.955 --     5 C    1.650     3 C    1.173    43 H    0.976
     5   6 C    3.957 --     4 C    1.650     6 C    1.180    44 H    0.974
     6   6 C    3.904 --     8 C    1.269     7 N    1.259     5 C    1.180
     7   7 N    3.242 --     6 C    1.259     3 C    1.220     1 Cu   0.501
     8   6 C    3.932 --    17 C    1.276     6 C    1.269     9 C    1.159
     9   6 C    3.958 --    10 C    2.625     8 C    1.159
    10   6 C    3.933 --     9 C    2.625    11 C    1.141
    11   6 C    3.987 --    16 C    1.350    12 C    1.350    10 C    1.141
    12   6 C    3.973 --    13 C    1.457    11 C    1.350    45 H    0.974
                            15 C    0.104
    13   6 C    3.973 --    12 C    1.457    14 N    1.407    46 H    0.972
                            16 C    0.104
    14   7 N    2.994 --    15 C    1.407    13 C    1.407
    15   6 C    3.973 --    16 C    1.457    14 N    1.407    47 H    0.972
                            12 C    0.104
    16   6 C    3.973 --    15 C    1.457    11 C    1.350    48 H    0.974
                            13 C    0.104
    17   6 C    3.897 --     8 C    1.276    20 N    1.239    18 C    1.188
    18   6 C    3.954 --    19 C    1.636    17 C    1.188    49 H    0.974
    19   6 C    3.955 --    18 C    1.636    21 C    1.189    50 H    0.974
    20   7 N    3.245 --    21 C    1.247    17 C    1.239     1 Cu   0.500
    21   6 C    3.887 --    22 C    1.260    20 N    1.247    19 C    1.189
    22   6 C    3.937 --    23 C    1.261    21 C    1.260   117 C    1.188
    23   6 C    3.887 --    22 C    1.261    27 N    1.247    24 C    1.189
    24   6 C    3.955 --    25 C    1.637    23 C    1.189    51 H    0.974
    25   6 C    3.954 --    24 C    1.637    26 C    1.188    52 H    0.974
    26   6 C    3.897 --    28 C    1.277    27 N    1.239    25 C    1.188
    27   7 N    3.245 --    23 C    1.247    26 C    1.239     1 Cu   0.500
    28   6 C    3.932 --    26 C    1.277    37 C    1.269    29 C    1.159
    29   6 C    3.958 --    30 C    2.625    28 C    1.159
    30   6 C    3.933 --    29 C    2.625    31 C    1.141
    31   6 C    3.987 --    32 C    1.350    36 C    1.350    30 C    1.141
    32   6 C    3.973 --    33 C    1.457    31 C    1.350    53 H    0.974
                            35 C    0.104
    33   6 C    3.973 --    32 C    1.457    34 N    1.407    54 H    0.972
                            36 C    0.104
    34   7 N    2.994 --    33 C    1.407    35 C    1.407
    35   6 C    3.973 --    36 C    1.457    34 N    1.407    55 H    0.972
                            32 C    0.104
    36   6 C    3.973 --    35 C    1.457    31 C    1.350    56 H    0.974
                            33 C    0.104
    37   6 C    3.904 --    28 C    1.269    41 N    1.258    38 C    1.180
    38   6 C    3.957 --    39 C    1.650    37 C    1.180    57 H    0.974
    39   6 C    3.955 --    38 C    1.650    40 C    1.173    58 H    0.976
    40   6 C    3.908 --     2 C    1.364    41 N    1.220    39 C    1.173
    41   7 N    3.242 --    37 C    1.258    40 C    1.220     1 Cu   0.502
    42   1 H    1.001 --     2 C    0.971
    43   1 H    0.998 --     4 C    0.976
    44   1 H    1.002 --     5 C    0.974
    45   1 H    1.002 --    12 C    0.974
    46   1 H    1.013 --    13 C    0.972
    47   1 H    1.013 --    15 C    0.972
    48   1 H    1.002 --    16 C    0.974
    49   1 H    1.002 --    18 C    0.974
    50   1 H    1.002 --    19 C    0.974
    51   1 H    1.002 --    24 C    0.974
    52   1 H    1.002 --    25 C    0.974
    53   1 H    1.002 --    32 C    0.974
    54   1 H    1.013 --    33 C    0.972
    55   1 H    1.013 --    35 C    0.972
    56   1 H    1.002 --    36 C    0.974
    57   1 H    1.003 --    38 C    0.974
    58   1 H    0.998 --    39 C    0.976
    59  29 Cu   2.173 --    99 N    0.502    65 N    0.501    78 N    0.500
                            85 N    0.500
    60   6 C    3.929 --    98 C    1.364    61 C    1.364   100 H    0.971
    61   6 C    3.908 --    60 C    1.364    65 N    1.220    62 C    1.173
    62   6 C    3.955 --    63 C    1.650    61 C    1.173   101 H    0.976
    63   6 C    3.957 --    62 C    1.650    64 C    1.180   102 H    0.974
    64   6 C    3.904 --    66 C    1.269    65 N    1.259    63 C    1.180
    65   7 N    3.242 --    64 C    1.259    61 C    1.220    59 Cu   0.501
    66   6 C    3.932 --    75 C    1.276    64 C    1.269    67 C    1.159
    67   6 C    3.958 --    68 C    2.625    66 C    1.159
    68   6 C    3.933 --    67 C    2.625    69 C    1.141
    69   6 C    3.987 --    74 C    1.350    70 C    1.350    68 C    1.141
    70   6 C    3.973 --    71 C    1.457    69 C    1.350   103 H    0.974
                            73 C    0.104
    71   6 C    3.973 --    70 C    1.457    72 N    1.407   104 H    0.972
                            74 C    0.104
    72   7 N    2.994 --    73 C    1.407    71 C    1.407
    73   6 C    3.973 --    74 C    1.457    72 N    1.407   105 H    0.972
                            70 C    0.104
    74   6 C    3.973 --    73 C    1.457    69 C    1.350   106 H    0.974
                            71 C    0.104
    75   6 C    3.897 --    66 C    1.276    78 N    1.239    76 C    1.188
    76   6 C    3.954 --    77 C    1.636    75 C    1.188   107 H    0.974
    77   6 C    3.955 --    76 C    1.636    79 C    1.189   108 H    0.974
    78   7 N    3.245 --    79 C    1.247    75 C    1.239    59 Cu   0.500
    79   6 C    3.887 --    80 C    1.260    78 N    1.247    77 C    1.189
    80   6 C    3.937 --    81 C    1.261    79 C    1.260   124 C    1.188
    81   6 C    3.887 --    80 C    1.261    85 N    1.247    82 C    1.189
    82   6 C    3.955 --    83 C    1.637    81 C    1.189   109 H    0.974
    83   6 C    3.954 --    82 C    1.637    84 C    1.187   110 H    0.974
    84   6 C    3.897 --    86 C    1.277    85 N    1.239    83 C    1.187
    85   7 N    3.245 --    81 C    1.247    84 C    1.239    59 Cu   0.500
    86   6 C    3.932 --    84 C    1.277    95 C    1.269    87 C    1.159
    87   6 C    3.958 --    88 C    2.625    86 C    1.159
    88   6 C    3.933 --    87 C    2.625    89 C    1.141
    89   6 C    3.987 --    90 C    1.350    94 C    1.350    88 C    1.141
    90   6 C    3.973 --    91 C    1.457    89 C    1.350   111 H    0.974
                            93 C    0.104
    91   6 C    3.973 --    90 C    1.457    92 N    1.407   112 H    0.972
                            94 C    0.104
    92   7 N    2.994 --    91 C    1.407    93 C    1.407
    93   6 C    3.973 --    94 C    1.457    92 N    1.407   113 H    0.972
                            90 C    0.104
    94   6 C    3.973 --    93 C    1.457    89 C    1.350   114 H    0.974
                            91 C    0.104
    95   6 C    3.904 --    86 C    1.269    99 N    1.259    96 C    1.180
    96   6 C    3.957 --    97 C    1.650    95 C    1.180   115 H    0.974
    97   6 C    3.955 --    96 C    1.650    98 C    1.173   116 H    0.976
    98   6 C    3.908 --    60 C    1.364    99 N    1.220    97 C    1.173
    99   7 N    3.242 --    95 C    1.259    98 C    1.220    59 Cu   0.502
   100   1 H    1.001 --    60 C    0.971
   101   1 H    0.998 --    62 C    0.976
   102   1 H    1.002 --    63 C    0.974
   103   1 H    1.002 --    70 C    0.974
   104   1 H    1.013 --    71 C    0.972
   105   1 H    1.013 --    73 C    0.972
   106   1 H    1.002 --    74 C    0.974
   107   1 H    1.002 --    76 C    0.974
   108   1 H    1.002 --    77 C    0.974
   109   1 H    1.002 --    82 C    0.974
   110   1 H    1.002 --    83 C    0.974
   111   1 H    1.002 --    90 C    0.974
   112   1 H    1.013 --    91 C    0.972
   113   1 H    1.013 --    93 C    0.972
   114   1 H    1.002 --    94 C    0.974
   115   1 H    1.003 --    96 C    0.974
   116   1 H    0.998 --    97 C    0.976
   117   6 C    3.878 --   118 C    2.444    22 C    1.188   120 C    0.187
   118   6 C    3.936 --   117 C    2.444   119 C    1.341
   119   6 C    3.894 --   120 C    2.340   118 C    1.341   122 C    0.183
   120   6 C    3.926 --   119 C    2.340   121 C    1.367   117 C    0.187
   121   6 C    3.926 --   122 C    2.340   120 C    1.367   124 C    0.187
   122   6 C    3.894 --   121 C    2.340   123 C    1.341   119 C    0.183
   123   6 C    3.936 --   124 C    2.444   122 C    1.341
   124   6 C    3.878 --   123 C    2.444    80 C    1.188   121 C    0.187
 ---------------------------------------------------------------------------

           -------------------------------------------------
          | TOTAL ENERGY             -225.821849072483 Eh   |
          | GRADIENT NORM               0.000755892558 Eh/α |
          | HOMO-LUMO GAP               0.000017803071 eV   |
           -------------------------------------------------

 * finished run on 2022/07/30 at 08:10:29.779
