   * xtb version 6.5.1 (b24c23e) compiled by 'conda@728c89f4b128' on 2022-07-12
          program call               : xtb Cu_Ph2Me_C2_2.xyz --gfn 1 --opt -T 48

   ID    Z sym.   atoms
    1   29 Cu     1, 69
    2    6 C      2-6, 8-11, 13-31, 34-41, 70-74, 76-79, 81-99, 102-109, 137,
                  138
    3    7 N      7, 12, 32, 33, 75, 80, 100, 101
    4    1 H      42-68, 110-136
########################################################################
[WARNING] Please study the warnings concerning your input carefully
-1- prog_main_parseArguments: Unknown option '-T' provided
########################################################################

          :  Hamiltonian                  GFN1-xTB          :
 * total energy  :  -219.7827791 Eh     change       -0.3696243E-09 Eh
 * total energy  :  -220.0162778 Eh     change       -0.2334988E+00 Eh
 * total energy  :  -220.0892657 Eh     change       -0.7298791E-01 Eh
 * total energy  :  -220.1135037 Eh     change       -0.2423794E-01 Eh
 * total energy  :  -220.1220363 Eh     change       -0.8532634E-02 Eh
 * total energy  :  -220.1273616 Eh     change       -0.5325268E-02 Eh
 * total energy  :  -220.1305962 Eh     change       -0.3234592E-02 Eh
 * total energy  :  -220.1327445 Eh     change       -0.2148320E-02 Eh
 * total energy  :  -220.1341375 Eh     change       -0.1393060E-02 Eh
 * total energy  :  -220.1351202 Eh     change       -0.9826393E-03 Eh
 * total energy  :  -220.1401262 Eh     change       -0.7453551E-05 Eh
 * total energy  :  -220.1401361 Eh     change       -0.9816118E-05 Eh
 * total energy  :  -220.1401470 Eh     change       -0.1097649E-04 Eh
 * total energy  :  -220.1401576 Eh     change       -0.1058177E-04 Eh
 * total energy  :  -220.1401682 Eh     change       -0.1062191E-04 Eh
 * total energy  :  -220.1401806 Eh     change       -0.1236756E-04 Eh
 * total energy  :  -220.1401948 Eh     change       -0.1416236E-04 Eh
 * total energy  :  -220.1402107 Eh     change       -0.1589743E-04 Eh
 * total energy  :  -220.1402154 Eh     change       -0.4765353E-05 Eh
   *** GEOMETRY OPTIMIZATION CONVERGED AFTER 68 ITERATIONS ***

 final structure:
================
138
 xtb: 6.5.1 (b24c23e)
Cu          16.75664602031928        0.03369448849701        0.00904385347303
C           13.35635406237142        0.15051281704818       -0.15995108663263
C           14.00312795750162        1.31895010297583        0.21436248348601
C           13.34102400295499        2.54503725708273        0.55779749747599
C           14.30718634023367        3.43482924341860        0.89536982634794
C           15.57009883657992        2.76246270162832        0.75307498936465
N           15.35349146318701        1.47880177902761        0.34102809501506
C           16.81646564995191        3.32851582608407        1.02866180672006
C           18.03983785715996        2.66439995507070        0.92250617732172
C           19.32254447076835        3.26538516686628        1.15600238457562
C           20.25881732581917        2.31537287438402        0.90636057644081
N           18.21602718401329        1.36297496719191        0.53401293267002
C           19.55739913691766        1.12927901409073        0.51484997886410
C           20.18075980239980       -0.06761307879410        0.12644032457347
C           19.51513221066290       -1.23265614778635       -0.28718768926903
C           20.17125220532380       -2.44344880718018       -0.68130382791747
C           19.19890937601648       -3.34060514302312       -0.98393061186815
C           17.93961573623877       -2.68458118820290       -0.77206359873858
C           16.68947970295817       -3.27034042279430       -0.98126855216424
C           16.66454134766377       -4.69858854035249       -1.38841002435451
C           16.14996517936100       -5.07093777375986       -2.62799773098993
C           16.13085774346609       -6.40868453421124       -3.01283167347873
C           15.56308816559216       -6.79741898782227       -4.35138356229196
C           16.62561935097457       -7.37481290082489       -2.14418271075862
C           17.14089423830837       -7.01854538828549       -0.89995662691110
C           17.68591607152749       -8.07681665129485        0.02095198151048
C           17.16043291993379       -5.67955614815348       -0.52921468453610
C           15.46414775010597       -2.61619852602570       -0.83883708069471
C           14.17471605828480       -3.22235586441349       -1.03184205224141
C           13.24446694217120       -2.26061798814164       -0.81072184556061
C           13.95536478048061       -1.06185072842826       -0.46844346354218
N           15.29862435214248       -1.30747825252767       -0.48567091125973
N           18.16547519932963       -1.39893135453466       -0.35854301094852
C           16.84386716132854        4.75118392450726        1.45528787314636
C           16.41259080248703        5.75086211656273        0.58447329790499
C           16.43934258656432        7.08590570168084        0.97251813726132
C           16.00061402099952        8.16437310817718        0.01889707999443
C           16.89758024828146        7.41717918184588        2.24429774076059
C           17.32951753975072        6.43065003540654        3.12553565712005
C           17.79941068566448        6.79892222457114        4.50707129355902
C           17.30250939541067        5.09893037861525        2.72470054934676
H           12.27255771301743        0.18485726317030       -0.20367202029832
H           12.27217268256963        2.69032737534248        0.54488018771476
H           14.18307573996548        4.45421146720991        1.22404204278382
H           19.48255876342945        4.28810645053363        1.45692531609356
H           21.33153958243463        2.40480883821094        0.96933841762046
H           21.24004894384641       -2.58152008891233       -0.71877464881380
H           19.31897218107825       -4.35387979675221       -1.33185841497672
H           15.77824415461163       -4.30786715364501       -3.30317790243543
H           15.87528312915828       -7.80356138534650       -4.63098295571688
H           14.47171481486919       -6.77468974448980       -4.31381627016560
H           15.88782327352945       -6.09985357878445       -5.12435704676633
H           16.61169553222237       -8.41951808562254       -2.43767195376301
H           17.80953381988605       -7.68890942148798        1.03194221852397
H           17.01895379259448       -8.93928502102236        0.05354796786618
H           18.65969566303993       -8.41736245593530       -0.33782025548290
H           17.54927929122590       -5.38964564750626        0.44085291708890
H           14.00996159416997       -4.25514472751335       -1.29406388786339
H           12.17021205370148       -2.34346427958216       -0.86402995562574
H           16.06950319196547        5.48086585091575       -0.40835098807232
H           15.53070328889111        8.98894546718257        0.55567387114708
H           15.29561264645455        7.77247292423523       -0.71439507962105
H           16.86624865091554        8.55925042629409       -0.51799235457339
H           16.91869651033424        8.45765163247521        2.55203676017424
H           16.95030244595444        6.82057266679108        5.19414506000876
H           18.26202673180237        7.78618763630889        4.50931369025468
H           18.51934192248052        6.07027768272246        4.88017150739743
H           17.62613123946722        4.32017900590553        3.40668438178717
Cu          27.64364748745351       -0.01797834835953       -0.02990344489873
C           31.04394992479421        0.11161980679074       -0.18903078134437
C           30.39716542738631       -0.57309057786835       -1.20712490905402
C           31.05925908537789       -1.24414722051053       -2.28922117445481
C           30.09309528206298       -1.81606929682737       -3.04986776437620
C           28.83018684872336       -1.49226602016781       -2.44366232873012
N           29.04679475105110       -0.73914788009273       -1.32545664100315
C           27.58382113861757       -1.91454497954827       -2.91061502067514
C           26.36045182268307       -1.62771224574581       -2.30229276395089
C           25.07774281579146       -2.01925040118924       -2.81453693591557
C           24.14147184943160       -1.51501032370509       -1.97156938988714
N           26.18426493068448       -0.89225236906716       -1.16048138375575
C           24.84289585438874       -0.80887600459324       -0.94129690569834
C           24.21953794980113       -0.10268558242932        0.10019606402981
C           24.88517208162940        0.61893531582015        1.10402194886295
C           24.22905644362496        1.33460211193951        2.15719264063482
C           25.20140434912311        1.87496199366028        2.93467558474160
C           26.46069358258911        1.48882795151464        2.36356807853490
C           27.71083192724556        1.85278808010032        2.86795887656465
C           27.73577064142600        2.64142963904408        4.12641030222939
C           28.25035867410163        3.93566845721296        4.13897746867143
C           28.26947075847113        4.67768162795535        5.31672128345762
C           28.83725235781859        6.07153285594477        5.31747888286144
C           27.77469933491819        4.11231411107668        6.48646605604734
C           27.25941167882708        2.81809815958825        6.49063508567253
C           26.71436924138830        2.22819124111889        7.76342685073638
C           27.23986920548115        2.08927396643351        5.30777589416487
C           28.93615919547547        1.53389461619483        2.27931430762396
C           30.22559308495524        1.88798665883541        2.80779191384925
C           31.15583687381632        1.40793134215478        1.94559480000854
C           30.44493859145901        0.74540893146353        0.88953613432355
N           29.10167493141773        0.83043343610868        1.12059741775490
N           26.23482995246613        0.73382025340360        1.24381073792140
C           27.55640980917488       -2.72030812150830       -4.15830805782041
C           27.98767873598402       -2.16219040407233       -5.36088429671084
C           27.96093341501981       -2.90653682410269       -6.53513787950759
C           28.39965625575545       -2.29082524398734       -7.83644112253356
C           27.50270514922408       -4.22026736907448       -6.49928807678241
C           27.07077217588181       -4.79205321862377       -5.30644051135247
C           26.60088633353820       -6.22149992659543       -5.27557192690331
C           27.09777521708650       -4.03634900290712       -4.13894119959819
H           32.12773814967607        0.14413230069490       -0.23424263088776
H           32.12811090487791       -1.27219000260923       -2.43236074526068
H           30.21720072334468       -2.41551336906860       -3.93746763875208
H           24.91772728160712       -2.59298902670388       -3.71305639677296
H           23.06875061295533       -1.60041166046524       -2.03992072760348
H           23.16026038730090        1.40902933406647        2.27937542327647
H           25.08134846356703        2.49117645014466        3.81106439639083
H           28.62209137720281        4.37173848736597        3.21811941515493
H           28.52506186643922        6.62016414442071        6.20601987649092
H           29.92862535662244        6.02911437945794        5.30610484799682
H           28.51252123523766        6.61977407227325        4.43231252037628
H           27.78861783022578        4.68502147549186        7.40817741762403
H           26.59074258931031        1.14918022853313        7.67228598674282
H           27.38132598133979        2.43696671862179        8.60088378322074
H           25.74059120160592        2.66759036962182        7.99063070469898
H           26.85100594910368        1.07685298394648        5.29936059616436
H           30.39034888667669        2.42730192033379        3.72678700781648
H           32.23009288558423        1.48217754613362        2.01033118216999
H           28.33075956094845       -1.13344752131482       -5.37793520129618
H           28.86956710898036       -3.03592273945514       -8.47899747580172
H           29.10465625449680       -1.47742193578262       -7.66416269131743
H           27.53401967243704       -1.88508296175743       -8.36516431472262
H           27.48158658373690       -4.80547961736292       -7.41296895785114
H           27.44999909947234       -6.88743703593051       -5.10510467758368
H           26.13827046866507       -6.49848429751764       -6.22318871081937
H           25.88095731988139       -6.37702157115260       -4.47186607764452
H           26.77415846648715       -4.47459596456843       -3.20112539216334
C           21.59240731153760       -0.09310625581694        0.13492282043329
C           22.80789002680448       -0.10365337476435        0.12701244749944

          :  Hamiltonian                  GFN1-xTB          :
         :: total energy            -220.140215431939 Eh    ::
         :: gradient norm              0.000309145913 Eh/a0 ::
         :: HOMO-LUMO gap              0.000488090868 eV    ::
         :: SCC energy              -223.548969123536 Eh    ::
         :: repulsion energy           3.528325367838 Eh    ::

    * Orbital Energies and Occupations

         #    Occupation            Energy/Eh            Energy/eV
      -------------------------------------------------------------
         1        2.0000           -0.7592591             -20.6605
       ...           ...                  ...                  ...
       194        2.0000           -0.4073585             -11.0848
       195        2.0000           -0.4073175             -11.0837
       196        2.0000           -0.4041865             -10.9985
       197        2.0000           -0.4041847             -10.9984
       198        2.0000           -0.4039263             -10.9914
       199        2.0000           -0.4038606             -10.9896
       200        2.0000           -0.4038591             -10.9896
       201        2.0000           -0.4038262             -10.9887
       202        2.0000           -0.3908652             -10.6360
       203        2.0000           -0.3908605             -10.6359
       204        2.0000           -0.3881781             -10.5629
       205        2.0000           -0.3762932             -10.2395
       206        1.0047           -0.3512534              -9.5581 (HOMO)
       207        0.9953           -0.3512355              -9.5576 (LUMO)
       208                         -0.3319998              -9.0342
       209                         -0.3226830              -8.7807
       210                         -0.3226794              -8.7806
       211                         -0.3180229              -8.6538
       212                         -0.2906276              -7.9084
       213                         -0.2836243              -7.7178
       214                         -0.2557250              -6.9586
       215                         -0.2557043              -6.9581
       216                         -0.2553439              -6.9483
       217                         -0.2552662              -6.9461
       ...                                ...                  ...
       454                          1.3488663              36.7045
      -------------------------------------------------------------
                  HL-Gap            0.0000179 Eh            0.0005 eV

Wiberg/Mayer (AO) data.
largest (>0.10) Wiberg bond orders for each atom

     #   Z sym  total        # sym  WBO       # sym  WBO       # sym  WBO
 ---------------------------------------------------------------------------
     1  29 Cu   2.189 --     7 N    0.506    32 N    0.506    12 N    0.503
                            33 N    0.503
     2   6 C    3.931 --     3 C    1.361    31 C    1.361    42 H    0.971
     3   6 C    3.918 --     2 C    1.361     7 N    1.230     4 C    1.171
     4   6 C    3.955 --     5 C    1.656     3 C    1.171    43 H    0.976
     5   6 C    3.958 --     4 C    1.656     6 C    1.172    44 H    0.973
     6   6 C    3.913 --     8 C    1.322     7 N    1.237     5 C    1.172
     7   7 N    3.245 --     6 C    1.237     3 C    1.230     1 Cu   0.506
     8   6 C    3.935 --     9 C    1.326     6 C    1.322    34 C    1.023
     9   6 C    3.909 --     8 C    1.326    12 N    1.224    10 C    1.179
    10   6 C    3.956 --    11 C    1.643     9 C    1.179    45 H    0.973
    11   6 C    3.957 --    10 C    1.643    13 C    1.185    46 H    0.972
    12   7 N    3.249 --    13 C    1.253     9 C    1.224     1 Cu   0.503
    13   6 C    3.905 --    14 C    1.269    12 N    1.253    11 C    1.185
    14   6 C    3.940 --    15 C    1.270    13 C    1.269   137 C    1.164
    15   6 C    3.905 --    14 C    1.270    33 N    1.252    16 C    1.186
    16   6 C    3.957 --    17 C    1.643    15 C    1.186    47 H    0.972
    17   6 C    3.956 --    16 C    1.643    18 C    1.179    48 H    0.973
    18   6 C    3.909 --    19 C    1.325    33 N    1.224    17 C    1.179
    19   6 C    3.935 --    18 C    1.325    28 C    1.322    20 C    1.024
    20   6 C    3.988 --    21 C    1.404    27 C    1.391    19 C    1.024
                            24 C    0.103
    21   6 C    3.987 --    22 C    1.410    20 C    1.404    49 H    0.972
                            25 C    0.104
    22   6 C    3.988 --    24 C    1.423    21 C    1.410    23 C    1.020
                            27 C    0.103
    23   6 C    3.996 --    22 C    1.020    50 H    0.985    52 H    0.980
                            51 H    0.972
    24   6 C    3.989 --    22 C    1.423    25 C    1.408    53 H    0.972
                            20 C    0.103
    25   6 C    3.988 --    27 C    1.424    24 C    1.408    26 C    1.020
                            21 C    0.104
    26   6 C    3.996 --    25 C    1.020    54 H    0.985    55 H    0.979
                            56 H    0.972
    27   6 C    3.987 --    25 C    1.424    20 C    1.391    57 H    0.972
                            22 C    0.103
    28   6 C    3.914 --    19 C    1.322    32 N    1.237    29 C    1.172
    29   6 C    3.958 --    30 C    1.656    28 C    1.172    58 H    0.973
    30   6 C    3.955 --    29 C    1.656    31 C    1.171    59 H    0.976
    31   6 C    3.918 --     2 C    1.361    32 N    1.230    30 C    1.171
    32   7 N    3.244 --    28 C    1.237    31 C    1.230     1 Cu   0.506
    33   7 N    3.249 --    15 C    1.252    18 C    1.224     1 Cu   0.503
    34   6 C    3.988 --    41 C    1.399    35 C    1.397     8 C    1.023
                            38 C    0.103
    35   6 C    3.987 --    36 C    1.418    34 C    1.397    60 H    0.972
                            39 C    0.104
    36   6 C    3.988 --    35 C    1.418    38 C    1.415    37 C    1.020
                            41 C    0.104
    37   6 C    3.996 --    36 C    1.020    62 H    0.984    61 H    0.982
                            63 H    0.971
    38   6 C    3.989 --    39 C    1.416    36 C    1.415    64 H    0.972
                            34 C    0.103
    39   6 C    3.988 --    38 C    1.416    41 C    1.416    40 C    1.020
                            35 C    0.104
    40   6 C    3.996 --    39 C    1.020    67 H    0.983    66 H    0.982
                            65 H    0.971
    41   6 C    3.987 --    39 C    1.416    34 C    1.399    68 H    0.972
                            36 C    0.104
    42   1 H    1.002 --     2 C    0.971
    43   1 H    0.998 --     4 C    0.976
    44   1 H    1.005 --     5 C    0.973
    45   1 H    1.005 --    10 C    0.973
    46   1 H    1.004 --    11 C    0.972
    47   1 H    1.004 --    16 C    0.972
    48   1 H    1.005 --    17 C    0.973
    49   1 H    1.003 --    21 C    0.972
    50   1 H    1.004 --    23 C    0.985
    51   1 H    1.006 --    23 C    0.972
    52   1 H    1.005 --    23 C    0.980
    53   1 H    1.000 --    24 C    0.972
    54   1 H    1.004 --    26 C    0.985
    55   1 H    1.005 --    26 C    0.979
    56   1 H    1.006 --    26 C    0.972
    57   1 H    1.003 --    27 C    0.972
    58   1 H    1.005 --    29 C    0.973
    59   1 H    0.998 --    30 C    0.976
    60   1 H    1.003 --    35 C    0.972
    61   1 H    1.004 --    37 C    0.982
    62   1 H    1.004 --    37 C    0.984
    63   1 H    1.006 --    37 C    0.971
    64   1 H    1.000 --    38 C    0.972
    65   1 H    1.006 --    40 C    0.971
    66   1 H    1.004 --    40 C    0.982
    67   1 H    1.004 --    40 C    0.983
    68   1 H    1.003 --    41 C    0.972
    69  29 Cu   2.189 --    75 N    0.506   100 N    0.506    80 N    0.503
                           101 N    0.503
    70   6 C    3.931 --    71 C    1.361    99 C    1.361   110 H    0.971
    71   6 C    3.918 --    70 C    1.361    75 N    1.230    72 C    1.171
    72   6 C    3.955 --    73 C    1.656    71 C    1.171   111 H    0.976
    73   6 C    3.958 --    72 C    1.656    74 C    1.172   112 H    0.973
    74   6 C    3.913 --    76 C    1.322    75 N    1.237    73 C    1.172
    75   7 N    3.245 --    74 C    1.237    71 C    1.230    69 Cu   0.506
    76   6 C    3.935 --    77 C    1.326    74 C    1.322   102 C    1.023
    77   6 C    3.909 --    76 C    1.326    80 N    1.224    78 C    1.179
    78   6 C    3.956 --    79 C    1.643    77 C    1.179   113 H    0.973
    79   6 C    3.957 --    78 C    1.643    81 C    1.185   114 H    0.972
    80   7 N    3.249 --    81 C    1.253    77 C    1.224    69 Cu   0.503
    81   6 C    3.905 --    82 C    1.269    80 N    1.253    79 C    1.185
    82   6 C    3.940 --    83 C    1.270    81 C    1.269   138 C    1.164
    83   6 C    3.905 --    82 C    1.270   101 N    1.252    84 C    1.186
    84   6 C    3.957 --    85 C    1.643    83 C    1.186   115 H    0.972
    85   6 C    3.956 --    84 C    1.643    86 C    1.179   116 H    0.973
    86   6 C    3.909 --    87 C    1.325   101 N    1.224    85 C    1.179
    87   6 C    3.935 --    86 C    1.325    96 C    1.322    88 C    1.024
    88   6 C    3.988 --    89 C    1.404    95 C    1.391    87 C    1.024
                            92 C    0.103
    89   6 C    3.987 --    90 C    1.410    88 C    1.404   117 H    0.972
                            93 C    0.104
    90   6 C    3.988 --    92 C    1.423    89 C    1.410    91 C    1.020
                            95 C    0.103
    91   6 C    3.996 --    90 C    1.020   118 H    0.985   120 H    0.980
                           119 H    0.972
    92   6 C    3.989 --    90 C    1.423    93 C    1.408   121 H    0.972
                            88 C    0.103
    93   6 C    3.988 --    95 C    1.424    92 C    1.408    94 C    1.020
                            89 C    0.104
    94   6 C    3.996 --    93 C    1.020   122 H    0.985   123 H    0.979
                           124 H    0.972
    95   6 C    3.987 --    93 C    1.424    88 C    1.391   125 H    0.972
                            90 C    0.103
    96   6 C    3.914 --    87 C    1.322   100 N    1.237    97 C    1.172
    97   6 C    3.958 --    98 C    1.656    96 C    1.172   126 H    0.973
    98   6 C    3.955 --    97 C    1.656    99 C    1.171   127 H    0.976
    99   6 C    3.918 --    70 C    1.361   100 N    1.230    98 C    1.171
   100   7 N    3.244 --    96 C    1.237    99 C    1.230    69 Cu   0.506
   101   7 N    3.249 --    83 C    1.252    86 C    1.224    69 Cu   0.503
   102   6 C    3.988 --   109 C    1.399   103 C    1.397    76 C    1.023
                           106 C    0.103
   103   6 C    3.987 --   104 C    1.418   102 C    1.397   128 H    0.972
                           107 C    0.104
   104   6 C    3.988 --   103 C    1.418   106 C    1.415   105 C    1.020
                           109 C    0.104
   105   6 C    3.996 --   104 C    1.020   130 H    0.984   129 H    0.982
                           131 H    0.971
   106   6 C    3.989 --   107 C    1.416   104 C    1.415   132 H    0.972
                           102 C    0.103
   107   6 C    3.988 --   106 C    1.416   109 C    1.416   108 C    1.020
                           103 C    0.104
   108   6 C    3.996 --   107 C    1.020   135 H    0.983   134 H    0.982
                           133 H    0.971
   109   6 C    3.987 --   107 C    1.416   102 C    1.399   136 H    0.972
                           104 C    0.104
   110   1 H    1.002 --    70 C    0.971
   111   1 H    0.998 --    72 C    0.976
   112   1 H    1.005 --    73 C    0.973
   113   1 H    1.005 --    78 C    0.973
   114   1 H    1.004 --    79 C    0.972
   115   1 H    1.004 --    84 C    0.972
   116   1 H    1.005 --    85 C    0.973
   117   1 H    1.003 --    89 C    0.972
   118   1 H    1.004 --    91 C    0.985
   119   1 H    1.006 --    91 C    0.972
   120   1 H    1.005 --    91 C    0.980
   121   1 H    1.000 --    92 C    0.972
   122   1 H    1.004 --    94 C    0.985
   123   1 H    1.005 --    94 C    0.979
   124   1 H    1.006 --    94 C    0.972
   125   1 H    1.003 --    95 C    0.972
   126   1 H    1.005 --    97 C    0.973
   127   1 H    0.998 --    98 C    0.976
   128   1 H    1.003 --   103 C    0.972
   129   1 H    1.004 --   105 C    0.982
   130   1 H    1.004 --   105 C    0.984
   131   1 H    1.006 --   105 C    0.971
   132   1 H    1.000 --   106 C    0.972
   133   1 H    1.006 --   108 C    0.971
   134   1 H    1.004 --   108 C    0.982
   135   1 H    1.004 --   108 C    0.983
   136   1 H    1.003 --   109 C    0.972
   137   6 C    3.934 --   138 C    2.589    14 C    1.164
   138   6 C    3.934 --   137 C    2.589    82 C    1.164
 ---------------------------------------------------------------------------

           -------------------------------------------------
          | TOTAL ENERGY             -220.140215431939 Eh   |
          | GRADIENT NORM               0.000309145913 Eh/α |
          | HOMO-LUMO GAP               0.000488090868 eV   |
           -------------------------------------------------

 * finished run on 2022/07/30 at 06:44:05.795
