   * xtb version 6.5.1 (b24c23e) compiled by 'conda@728c89f4b128' on 2022-07-12
          program call               : xtb Zn_NMA_C2_3.xyz --gfn 1 --opt -T 48

   ID    Z sym.   atoms
    1   30 Zn     1, 67, 137
    2    6 C      2-6, 8-12, 14-19, 21-26, 28-32, 34-40, 68-72, 74-78, 80-85,
                  87-92, 94-98, 100-106, 133-136, 138-142, 144-148, 150-155,
                  157-162, 164-168, 170-176
    3    7 N      7, 13, 20, 27, 33, 41, 73, 79, 86, 93, 99, 107, 143, 149,
                  156, 163, 169, 177
    4    1 H      42-66, 108-132, 178-201
########################################################################
[WARNING] Please study the warnings concerning your input carefully
-1- prog_main_parseArguments: Unknown option '-T' provided
########################################################################

          :  Hamiltonian                  GFN1-xTB          :
 * total energy  :  -296.4311186 Eh     change       -0.2061029E-08 Eh
 * total energy  :  -316.5503774 Eh     change       -0.2011926E+02 Eh
 * total energy  :  -319.0718199 Eh     change       -0.2521442E+01 Eh
 * total energy  :  -320.8640469 Eh     change       -0.1792227E+01 Eh
 * total energy  :  -321.7727339 Eh     change       -0.9086871E+00 Eh
 * total energy  :  -322.3092202 Eh     change       -0.5364862E+00 Eh
 * total energy  :  -322.6440574 Eh     change       -0.3348372E+00 Eh
 * total energy  :  -322.8700018 Eh     change       -0.2259444E+00 Eh
 * total energy  :  -323.0446747 Eh     change       -0.1746729E+00 Eh
 * total energy  :  -323.1894791 Eh     change       -0.1448044E+00 Eh
 * total energy  :  -323.7779798 Eh     change       -0.3214538E-04 Eh
 * total energy  :  -323.7780074 Eh     change       -0.2766319E-04 Eh
 * total energy  :  -323.7780304 Eh     change       -0.2295143E-04 Eh
 * total energy  :  -323.7780498 Eh     change       -0.1940960E-04 Eh
 * total energy  :  -323.7780650 Eh     change       -0.1517108E-04 Eh
 * total energy  :  -323.7780751 Eh     change       -0.1011811E-04 Eh
 * total energy  :  -323.7780822 Eh     change       -0.7075518E-05 Eh
 * total energy  :  -323.7780874 Eh     change       -0.5262980E-05 Eh
 * total energy  :  -323.7780921 Eh     change       -0.4711143E-05 Eh
   *** GEOMETRY OPTIMIZATION CONVERGED AFTER 87 ITERATIONS ***

 final structure:
================
201
 xtb: 6.5.1 (b24c23e)
Zn          38.56887310806253        0.06633592561892       -0.04779814671129
C           35.15456481420442        0.13469516335740       -0.08642805310255
C           35.78333170377712        1.04606456901032        0.75359658794713
C           35.10819476071920        1.97470792134444        1.61550687358976
C           36.06666994279981        2.67277720936979        2.27522716261021
C           37.34012199613651        2.18632402453086        1.81524452780608
N           37.13271056726025        1.19634344361300        0.89954213513591
C           38.59012276363694        2.63077562086948        2.26426801829809
C           38.59986624279946        3.74085650807981        3.24831187559186
C           38.05384675255729        4.98488573914106        2.92064339679713
C           38.07206496320330        6.02727087824312        3.82829330865486
C           38.63403867845453        5.85406499400535        5.09866393829588
N           38.58017994525802        6.91293403160895        5.99567654478673
C           39.55321465486949        6.98510130281901        7.07778453155996
C           39.16515013192324        4.60692518997033        5.43851595965973
C           39.15193505377734        3.57139845350364        4.51896621678528
C           39.82954158739503        2.12041217021504        1.85967444690707
C           41.10577235764843        2.60345606802234        2.30580958544088
C           42.05483596401007        1.86669500823724        1.67403726562209
N           40.03017858441702        1.10889317012774        0.95705678321181
C           41.37417929884640        0.93788162020537        0.82289292933875
C           42.01376472145544        0.00805616428097       -0.02419278739442
C           41.35608131566686       -0.90902076115375       -0.87109995224908
C           42.01736728862198       -1.87379160746184       -1.69748052657064
C           41.05307094132227       -2.58647621522316       -2.33377055634277
C           39.78772147246959       -2.05053505466853       -1.91769861413820
N           40.00930671004465       -1.03472989102318       -1.02493398658963
C           38.53755822481092       -2.51842367698495       -2.33967186085226
C           38.52047194369388       -3.64737225566121       -3.30202737459915
C           39.09756177770888       -3.52786784217374       -4.56704142023549
C           39.08181126040309       -4.58316882060059       -5.46399401202052
C           38.49596376779134       -5.80029985731560       -5.10585870516845
N           38.41210763964155       -6.87578267933727       -5.98088492240717
C           39.39727841096888       -7.00957704262988       -7.04616947489805
C           37.90919993528399       -5.92317554910100       -3.84091497512864
C           37.91980990785198       -4.86106424446460       -2.95641136619062
C           37.29727057382487       -2.01759701727049       -1.92416060206795
C           36.01576167546997       -2.45658658117622       -2.40908164988261
C           35.07195540317004       -1.71246623974823       -1.77933464095650
C           35.76474120533737       -0.80439955696705       -0.90936832636576
N           37.10977116287090       -1.01075664035825       -1.02288302015135
H           34.06911404692453        0.15672426903284       -0.09886969821461
H           34.03677210282724        2.06558692852287        1.70475664638878
H           35.92695876948642        3.44076292392776        3.01919753562232
H           37.63180252275116        5.13954455299419        1.93351650651506
H           37.65180473452463        6.99022558769121        3.55731381283085
H           38.45675699854414        7.80594215912822        5.53316933615967
H           40.57971710497929        6.89522065521845        6.70393507466223
H           39.36510851013232        6.19294070662386        7.80351261302745
H           39.43349396759412        7.94808518627430        7.57433238683530
H           39.58775715130397        4.43642243272005        6.42118856513790
H           39.55877145062209        2.60556669909368        4.79870492293809
H           41.25838564602347        3.41054630823412        3.00407394865636
H           43.12444258524102        1.94390607695326        1.77473995589011
H           43.08518959058564       -1.99302810836402       -1.77487954353586
H           41.18778576300265       -3.40943889878979       -3.01703908594718
H           39.54727568944721       -2.58562929059480       -4.86118463186445
H           39.52459210106363       -4.45125978744703       -6.44372859224487
H           38.24890030953876       -7.75278323258340       -5.50028196234463
H           39.24961088525418       -6.22791602623241       -7.79235824366823
H           39.24832059661396       -7.97862712911907       -7.52257809174986
H           40.42086837371980       -6.94960447810443       -6.65870305906856
H           37.44629048650989       -6.86216907214288       -3.55576552370686
H           37.47678025991537       -4.97633680020015       -1.97309184280461
H           35.86212568376826       -3.22604596706957       -3.14879214322603
H           34.00003450323569       -1.76004008929650       -1.89277289184071
Zn          60.45187855974760        0.02447495524118       -0.00440139702636
C           63.86650275135574        0.08601784994718       -0.06624177055024
C           63.25148864486549       -0.93859284251768       -0.77572995226187
C           63.94047799395683       -1.97350142705340       -1.49357171860415
C           62.99261731699114       -2.77670038317666       -2.03908668566971
C           61.71190137321241       -2.23478971036731       -1.67023078342472
N           61.90446120679303       -1.12660037474625       -0.89800803950559
C           60.46898009648694       -2.77708979154228       -2.02007313750413
C           60.47688142953336       -3.97080488443095       -2.90079227322027
C           61.03467232308962       -3.90379669306140       -4.18045868970514
C           61.03469689924946       -5.00832485297738       -5.01152830307135
C           60.47976362923655       -6.21996548056287       -4.58324524851694
N           60.55197902928373       -7.31713378377855       -5.43221023989654
C           59.58603653721941       -8.39834168724984       -5.28681282631127
C           59.93683408671124       -6.29810570222333       -3.29798621647966
C           59.93157995711837       -5.18330185810756       -2.47614354001301
C           59.22194183866239       -2.28387963140752       -1.61755042362756
C           57.95389502765237       -2.82845078291381       -2.01289053169279
C           56.99324743206428       -2.06450124706931       -1.43309508161960
N           59.00497946302306       -1.19337506799746       -0.81637441555299
C           57.65819995940072       -1.03624740635671       -0.69106564840425
C           57.00322295688715       -0.02155990749186        0.03926636679683
C           57.64927697062443        1.00209402441558        0.76521202510528
C           56.97630204270146        2.00005972205273        1.54024833854154
C           57.93025572526398        2.78445615197419        2.10341953957530
C           59.20172985566543        2.28472219112923        1.66263276283249
N           58.99400880832835        1.19623570408930        0.85631958006050
C           60.44428017104730        2.81774954854107        2.02688956585433
C           60.44086774050464        4.00627045854328        2.91441335300708
C           59.83258915948450        5.19856298017351        2.51865494832128
C           59.82459840284085        6.30837839370908        3.34704661078094
C           60.41845225171081        6.24540242662268        4.61049484701489
N           60.47800873089729        7.34009458304785        5.46335882854546
C           59.46272907894563        8.38049167497454        5.36352859368689
C           61.03757154000934        5.05488929500156        5.00910656820692
C           61.04968646900662        3.95538211462673        4.17140053183619
C           61.69204314908286        2.32207363597603        1.62848266176604
C           62.96544946316182        2.90891828281371        1.95125173433892
C           63.92016510849935        2.14377140010592        1.36460900397430
C           63.24211710099277        1.08662323815951        0.66886280168223
N           61.89495159414783        1.22467743241880        0.84370571703957
H           64.95184888238052        0.10620955982756       -0.08746146809016
H           65.01322496942008       -2.06994799615897       -1.55736327692614
H           63.14402569786218       -3.66698962621237       -2.62838689437696
H           61.45174877669638       -2.96650666385889       -4.53258280563293
H           61.46415016084088       -4.93949366141826       -6.00558487765407
H           60.67968001034105       -7.04795811386571       -6.40069827846526
H           58.55649019374172       -8.02202605378847       -5.28618667540963
H           59.76992501486220       -8.94186965941003       -4.35930881725841
H           59.71899052926804       -9.08329763846133       -6.12425960303687
H           59.51948284398281       -7.22782494238585       -2.93089962740455
H           59.51542442449814       -5.25985493342260       -1.47737195609167
H           57.81430443904236       -3.67878620281978       -2.66077684758278
H           55.92523082476472       -2.18425230205769       -1.50252928877036
H           55.90797845250732        2.08439195047395        1.64549534146069
H           57.78422067064038        3.62045716383305        2.76823738347588
H           59.37646596601142        5.26382220693980        1.53667142284152
H           59.35691415814170        7.22253757999021        3.00217566263289
H           60.65646886882769        7.07227412597956        6.42418721481619
H           59.58752325225618        8.93705308422364        4.43385037360896
H           59.59903730520049        9.06535765737893        6.20056717055387
H           58.45057749326907        7.96106570923723        5.39951674027445
H           61.50709192849718        4.99821074735343        5.98567172439735
H           61.51667838951840        3.03377066916485        4.50161422445998
H           63.10669531456143        3.80171322753993        2.53929412727075
H           64.99036112502476        2.27925742208962        1.38697166316691
C           43.42405967175531       -0.00412675474949       -0.02438561207106
C           44.64291413957010       -0.00692922296985       -0.02912663156447
C           54.37313738520498       -0.02952320346526        0.02985034207994
C           55.59236671524099       -0.02942544326040        0.04069377197727
Zn          49.50751527018799       -0.01162613232799       -0.01169370833504
C           46.05239060271732       -0.00712148462252       -0.02944306812701
C           46.70751853746565       -1.06898683395174       -0.68840554385663
C           46.05069048592043       -2.18613828812282       -1.29589116517310
C           47.01209604426955       -2.95027259191586       -1.87620801443982
C           48.26916941824079       -2.30356839616751       -1.63036645064263
N           48.05053370077875       -1.17609753523348       -0.88490481666024
C           49.51310147010174       -2.75268433408058       -2.09124928140573
C           49.51388736652796       -3.92795322646764       -2.99363257298388
C           50.22415676175430       -5.08571985259525       -2.66297720794083
C           50.22263851617122       -6.18172106725469       -3.50498643682512
C           49.51868088645789       -6.14857107743014       -4.71471061856705
N           49.50812890421734       -7.29051352631232       -5.50498861139517
C           49.24485227928790       -7.17105914517255       -6.93324089992126
C           48.80100075550817       -4.99659744441700       -5.04790912872735
C           48.80174938025047       -3.90631586253098       -4.19448382478493
C           50.75477512618085       -2.18737184676402       -1.77514279220040
C           52.01496759918331       -2.59831947781197       -2.32420822477134
C           52.97324303465622       -1.83610372621778       -1.73634733933544
N           50.96902526632674       -1.16670313131863       -0.88730838597270
C           52.31201384968062       -0.94943766365759       -0.82827616589297
C           52.96317421935005       -0.02612135325138        0.01796526876720
C           52.30410889199666        0.90483438979883        0.84969261903368
C           52.95679738397575        1.79207352225630        1.76321395221208
C           51.99545502329642        2.56811839757795        2.32731441580356
C           50.74178910222480        2.16388220549918        1.75917787237388
N           50.96239886004021        1.13436667550372        0.88316943694659
C           49.49985909730115        2.74169665651985        2.05021472861652
C           49.49691034936776        3.92654926879462        2.93988328772734
C           48.76799337721168        3.92401419893054        4.13083069834375
C           48.76537498439674        5.02320240469723        4.97273279418326
C           49.49797482632403        6.16518910515016        4.63755298658971
N           49.48714310055912        7.31528759770799        5.41546759643322
C           49.19832807160999        7.21551650550631        6.83998242279727
C           50.21919150532617        6.17908786839488        3.43761893992655
C           50.22248643821909        5.07420880569863        2.60728150960250
C           48.26013696547049        2.29522008358116        1.57624186842902
C           47.00317111634426        2.94964402401359        1.80056353730978
C           46.04543842854474        2.18297023810615        1.21761504792445
C           46.70462527910268        1.05723582197197        0.62887204652161
N           48.04572918794366        1.16155641494054        0.83869058889983
H           44.98958998904025       -2.37043967050440       -1.26713582388203
H           46.88161790412875       -3.88019838221798       -2.40589893414139
H           50.76694096131173       -5.12992098383094       -1.72467161645749
H           50.76956320434703       -7.07786493051664       -3.23042198638423
H           50.29153524422250       -7.90298610115510       -5.31073234917974
H           48.20498957040666       -6.88627103434307       -7.09936942576396
H           49.90149518448936       -6.42994975512858       -7.40402316049632
H           49.41609705861573       -8.14595315254807       -7.38989370034781
H           48.23840164477019       -4.94414583600036       -5.97227586162137
H           48.25550261322925       -3.01152875365316       -4.47349736708508
H           52.14986472922637       -3.35806560794529       -3.07722470275704
H           54.03524443913426       -1.85956067422226       -1.91455910716949
H           54.01543396920140        1.80695454600127        1.96026775027829
H           52.12376126757426        3.33307901565760        3.07618120681118
H           48.21058226790943        3.03690858577738        4.41180318199553
H           48.19073027288453        4.98523680075975        5.89012375053948
H           50.27844373010603        7.91910012996456        5.22641214304575
H           49.83777411385097        6.47239628692183        7.33040883246592
H           49.37341879115302        8.19356207566579        7.28839752729533
H           48.15259132813026        6.94486754235548        6.99137266168010
H           50.77789799144173        7.06725428169484        3.16136372905260
H           50.77797257623204        5.10382815513952        1.67620059298361
H           46.87064928235968        3.88579292706376        2.31863620490370
H           44.98591289215700        2.37230287345984        1.17249002221248

          :  Hamiltonian                  GFN1-xTB          :
         :: total energy            -323.778092153970 Eh    ::
         :: gradient norm              0.000699399453 Eh/a0 ::
         :: HOMO-LUMO gap              0.835224255404 eV    ::
         :: SCC energy              -328.814618207797 Eh    ::
         :: repulsion energy           5.214255970272 Eh    ::

    * Orbital Energies and Occupations

         #    Occupation            Energy/Eh            Energy/eV
      -------------------------------------------------------------
         1        2.0000           -0.7756741             -21.1072
       ...           ...                  ...                  ...
       285        2.0000           -0.4064509             -11.0601
       286        2.0000           -0.3928589             -10.6902
       287        2.0000           -0.3900301             -10.6133
       288        2.0000           -0.3892380             -10.5917
       289        2.0000           -0.3881407             -10.5618
       290        2.0000           -0.3877620             -10.5515
       291        2.0000           -0.3870640             -10.5325
       292        2.0000           -0.3820343             -10.3957
       293        2.0000           -0.3818326             -10.3902
       294        2.0000           -0.3816149             -10.3843
       295        2.0000           -0.3769505             -10.2573
       296        2.0000           -0.3696068             -10.0575
       297        2.0000           -0.3593085              -9.7773 (HOMO)
       298        0.0000           -0.3286146              -8.9421 (LUMO)
       299                         -0.3167350              -8.6188
       300                         -0.3139174              -8.5421
       301                         -0.3138010              -8.5390
       302                         -0.3134644              -8.5298
       303                         -0.3051919              -8.3047
       304                         -0.2856673              -7.7734
       305                         -0.2772672              -7.5448
       306                         -0.2724834              -7.4146
       307                         -0.2524558              -6.8697
       308                         -0.2524120              -6.8685
       ...                                ...                  ...
       656                          1.3436206              36.5618
      -------------------------------------------------------------
                  HL-Gap            0.0306939 Eh            0.8352 eV

Wiberg/Mayer (AO) data.
largest (>0.10) Wiberg bond orders for each atom

     #   Z sym  total        # sym  WBO       # sym  WBO       # sym  WBO
 ---------------------------------------------------------------------------
     1  30 Zn   2.001 --     7 N    0.460    41 N    0.459    20 N    0.459
                            27 N    0.457
     2   6 C    3.924 --    40 C    1.356     3 C    1.356    42 H    0.972
     3   6 C    3.923 --     2 C    1.356     7 N    1.233     4 C    1.173
     4   6 C    3.959 --     5 C    1.655     3 C    1.173    43 H    0.976
     5   6 C    3.963 --     4 C    1.655     6 C    1.175    44 H    0.973
     6   6 C    3.917 --     8 C    1.312     7 N    1.244     5 C    1.175
     7   7 N    3.292 --     6 C    1.244     3 C    1.233     1 Zn   0.460
     8   6 C    3.932 --    17 C    1.321     6 C    1.312     9 C    1.032
     9   6 C    3.988 --    16 C    1.386    10 C    1.376     8 C    1.032
    10   6 C    3.988 --    11 C    1.474     9 C    1.376    45 H    0.973
    11   6 C    3.989 --    10 C    1.474    12 C    1.348    46 H    0.971
                            16 C    0.101
    12   6 C    3.953 --    15 C    1.356    11 C    1.348    13 N    1.104
    13   7 N    3.175 --    12 C    1.104    14 C    0.972    47 H    0.932
    14   6 C    3.969 --    50 H    0.990    49 H    0.986    48 H    0.984
                            13 N    0.972
    15   6 C    3.990 --    16 C    1.462    12 C    1.356    51 H    0.970
    16   6 C    3.988 --    15 C    1.462     9 C    1.386    52 H    0.973
                            11 C    0.101
    17   6 C    3.912 --     8 C    1.321    20 N    1.225    18 C    1.183
    18   6 C    3.959 --    19 C    1.640    17 C    1.183    53 H    0.973
    19   6 C    3.961 --    18 C    1.640    21 C    1.190    54 H    0.966
    20   7 N    3.297 --    21 C    1.261    17 C    1.225     1 Zn   0.459
    21   6 C    3.906 --    20 N    1.261    22 C    1.254    19 C    1.190
    22   6 C    3.937 --    23 C    1.255    21 C    1.254   133 C    1.185
    23   6 C    3.906 --    27 N    1.261    22 C    1.255    24 C    1.190
    24   6 C    3.962 --    25 C    1.641    23 C    1.190    55 H    0.966
    25   6 C    3.959 --    24 C    1.641    26 C    1.182    56 H    0.973
    26   6 C    3.912 --    28 C    1.321    27 N    1.225    25 C    1.182
    27   7 N    3.296 --    23 C    1.261    26 C    1.225     1 Zn   0.457
    28   6 C    3.932 --    26 C    1.321    37 C    1.312    29 C    1.031
    29   6 C    3.988 --    30 C    1.387    36 C    1.376    28 C    1.031
    30   6 C    3.988 --    31 C    1.462    29 C    1.387    57 H    0.973
                            35 C    0.101
    31   6 C    3.990 --    30 C    1.462    32 C    1.356    58 H    0.970
    32   6 C    3.953 --    31 C    1.356    35 C    1.348    33 N    1.104
    33   7 N    3.174 --    32 C    1.104    34 C    0.972    59 H    0.932
    34   6 C    3.969 --    61 H    0.990    60 H    0.986    62 H    0.984
                            33 N    0.972
    35   6 C    3.990 --    36 C    1.474    32 C    1.348    63 H    0.971
                            30 C    0.101
    36   6 C    3.988 --    35 C    1.474    29 C    1.376    64 H    0.973
    37   6 C    3.917 --    28 C    1.312    41 N    1.244    38 C    1.174
    38   6 C    3.963 --    39 C    1.655    37 C    1.174    65 H    0.973
    39   6 C    3.959 --    38 C    1.655    40 C    1.173    66 H    0.976
    40   6 C    3.923 --     2 C    1.356    41 N    1.233    39 C    1.173
    41   7 N    3.292 --    37 C    1.244    40 C    1.233     1 Zn   0.459
    42   1 H    1.002 --     2 C    0.972
    43   1 H    0.999 --     4 C    0.976
    44   1 H    1.006 --     5 C    0.973
    45   1 H    1.005 --    10 C    0.973
    46   1 H    0.999 --    11 C    0.971
    47   1 H    0.967 --    13 N    0.932
    48   1 H    1.004 --    14 C    0.984
    49   1 H    1.012 --    14 C    0.986
    50   1 H    1.007 --    14 C    0.990
    51   1 H    1.001 --    15 C    0.970
    52   1 H    1.006 --    16 C    0.973
    53   1 H    1.006 --    18 C    0.973
    54   1 H    1.008 --    19 C    0.966
    55   1 H    1.008 --    24 C    0.966
    56   1 H    1.006 --    25 C    0.973
    57   1 H    1.005 --    30 C    0.973
    58   1 H    1.001 --    31 C    0.970
    59   1 H    0.967 --    33 N    0.932
    60   1 H    1.012 --    34 C    0.986
    61   1 H    1.007 --    34 C    0.990
    62   1 H    1.004 --    34 C    0.984
    63   1 H    0.999 --    35 C    0.971
    64   1 H    1.005 --    36 C    0.973
    65   1 H    1.006 --    38 C    0.973
    66   1 H    0.999 --    39 C    0.976
    67  30 Zn   2.002 --    73 N    0.460   107 N    0.459    86 N    0.458
                            93 N    0.458
    68   6 C    3.923 --    69 C    1.356   106 C    1.356   108 H    0.972
    69   6 C    3.923 --    68 C    1.356    73 N    1.233    70 C    1.173
    70   6 C    3.959 --    71 C    1.655    69 C    1.173   109 H    0.976
    71   6 C    3.963 --    70 C    1.655    72 C    1.175   110 H    0.973
    72   6 C    3.917 --    74 C    1.313    73 N    1.244    71 C    1.175
    73   7 N    3.292 --    72 C    1.244    69 C    1.233    67 Zn   0.460
    74   6 C    3.932 --    83 C    1.320    72 C    1.313    75 C    1.032
    75   6 C    3.988 --    82 C    1.387    76 C    1.376    74 C    1.032
    76   6 C    3.988 --    77 C    1.474    75 C    1.376   111 H    0.973
    77   6 C    3.990 --    76 C    1.474    78 C    1.348   112 H    0.971
                            82 C    0.101
    78   6 C    3.953 --    81 C    1.356    77 C    1.348    79 N    1.104
    79   7 N    3.174 --    78 C    1.104    80 C    0.972   113 H    0.932
    80   6 C    3.969 --   116 H    0.990   115 H    0.986   114 H    0.984
                            79 N    0.972
    81   6 C    3.990 --    82 C    1.462    78 C    1.356   117 H    0.970
    82   6 C    3.988 --    81 C    1.462    75 C    1.387   118 H    0.973
                            77 C    0.101
    83   6 C    3.912 --    74 C    1.320    86 N    1.225    84 C    1.183
    84   6 C    3.959 --    85 C    1.640    83 C    1.183   119 H    0.973
    85   6 C    3.961 --    84 C    1.640    87 C    1.191   120 H    0.965
    86   7 N    3.296 --    87 C    1.261    83 C    1.225    67 Zn   0.458
    87   6 C    3.906 --    86 N    1.261    88 C    1.254    85 C    1.191
    88   6 C    3.937 --    87 C    1.254    89 C    1.254   136 C    1.186
    89   6 C    3.906 --    93 N    1.261    88 C    1.254    90 C    1.191
    90   6 C    3.961 --    91 C    1.640    89 C    1.191   121 H    0.964
    91   6 C    3.959 --    90 C    1.640    92 C    1.183   122 H    0.973
    92   6 C    3.912 --    94 C    1.320    93 N    1.225    91 C    1.183
    93   7 N    3.296 --    89 C    1.261    92 C    1.225    67 Zn   0.458
    94   6 C    3.932 --    92 C    1.320   103 C    1.313    95 C    1.032
    95   6 C    3.988 --    96 C    1.386   102 C    1.376    94 C    1.032
    96   6 C    3.988 --    97 C    1.462    95 C    1.386   123 H    0.973
                           101 C    0.100
    97   6 C    3.990 --    96 C    1.462    98 C    1.356   124 H    0.970
    98   6 C    3.952 --    97 C    1.356   101 C    1.348    99 N    1.104
    99   7 N    3.174 --    98 C    1.104   100 C    0.972   125 H    0.932
   100   6 C    3.969 --   127 H    0.990   126 H    0.986   128 H    0.984
                            99 N    0.972
   101   6 C    3.989 --   102 C    1.474    98 C    1.348   129 H    0.971
                            96 C    0.100
   102   6 C    3.987 --   101 C    1.474    95 C    1.376   130 H    0.973
   103   6 C    3.917 --    94 C    1.313   107 N    1.244   104 C    1.174
   104   6 C    3.963 --   105 C    1.655   103 C    1.174   131 H    0.973
   105   6 C    3.959 --   104 C    1.655   106 C    1.173   132 H    0.976
   106   6 C    3.923 --    68 C    1.356   107 N    1.233   105 C    1.173
   107   7 N    3.291 --   103 C    1.244   106 C    1.233    67 Zn   0.459
   108   1 H    1.002 --    68 C    0.972
   109   1 H    0.999 --    70 C    0.976
   110   1 H    1.006 --    71 C    0.973
   111   1 H    1.005 --    76 C    0.973
   112   1 H    0.999 --    77 C    0.971
   113   1 H    0.967 --    79 N    0.932
   114   1 H    1.004 --    80 C    0.984
   115   1 H    1.012 --    80 C    0.986
   116   1 H    1.007 --    80 C    0.990
   117   1 H    1.001 --    81 C    0.970
   118   1 H    1.006 --    82 C    0.973
   119   1 H    1.006 --    84 C    0.973
   120   1 H    1.008 --    85 C    0.965
   121   1 H    1.008 --    90 C    0.964
   122   1 H    1.006 --    91 C    0.973
   123   1 H    1.006 --    96 C    0.973
   124   1 H    1.001 --    97 C    0.970
   125   1 H    0.967 --    99 N    0.932
   126   1 H    1.012 --   100 C    0.986
   127   1 H    1.007 --   100 C    0.990
   128   1 H    1.004 --   100 C    0.984
   129   1 H    0.999 --   101 C    0.971
   130   1 H    1.005 --   102 C    0.973
   131   1 H    1.006 --   104 C    0.973
   132   1 H    0.999 --   105 C    0.976
   133   6 C    3.930 --   134 C    2.568    22 C    1.185
   134   6 C    3.934 --   133 C    2.568   138 C    1.188
   135   6 C    3.934 --   136 C    2.568   158 C    1.188
   136   6 C    3.930 --   135 C    2.568    88 C    1.186
   137  30 Zn   1.999 --   163 N    0.457   156 N    0.457   177 N    0.457
                           143 N    0.456
   138   6 C    3.923 --   139 C    1.252   176 C    1.251   134 C    1.188
   139   6 C    3.907 --   143 N    1.260   138 C    1.252   140 C    1.193
   140   6 C    3.959 --   141 C    1.636   139 C    1.193   178 H    0.966
   141   6 C    3.960 --   140 C    1.636   142 C    1.186   179 H    0.973
   142   6 C    3.911 --   144 C    1.314   143 N    1.226   141 C    1.186
   143   7 N    3.288 --   139 C    1.260   142 C    1.226   137 Zn   0.456
   144   6 C    3.926 --   153 C    1.314   142 C    1.314   145 C    1.037
   145   6 C    3.988 --   152 C    1.383   146 C    1.373   144 C    1.037
   146   6 C    3.987 --   147 C    1.476   145 C    1.373   180 H    0.972
   147   6 C    3.989 --   146 C    1.476   148 C    1.347   181 H    0.971
   148   6 C    3.951 --   151 C    1.355   147 C    1.347   149 N    1.105
   149   7 N    3.174 --   148 C    1.105   150 C    0.972   182 H    0.932
   150   6 C    3.969 --   185 H    0.990   183 H    0.986   184 H    0.984
                           149 N    0.972
   151   6 C    3.990 --   152 C    1.464   148 C    1.355   186 H    0.970
   152   6 C    3.987 --   151 C    1.464   145 C    1.383   187 H    0.972
   153   6 C    3.911 --   144 C    1.314   156 N    1.225   154 C    1.186
   154   6 C    3.960 --   155 C    1.635   153 C    1.186   188 H    0.973
   155   6 C    3.959 --   154 C    1.635   157 C    1.194   189 H    0.965
   156   7 N    3.288 --   157 C    1.261   153 C    1.225   137 Zn   0.457
   157   6 C    3.907 --   156 N    1.261   158 C    1.251   155 C    1.194
   158   6 C    3.924 --   157 C    1.251   159 C    1.251   135 C    1.188
   159   6 C    3.907 --   163 N    1.261   158 C    1.251   160 C    1.194
   160   6 C    3.959 --   161 C    1.635   159 C    1.194   190 H    0.965
   161   6 C    3.960 --   160 C    1.635   162 C    1.187   191 H    0.973
   162   6 C    3.911 --   164 C    1.314   163 N    1.225   161 C    1.187
   163   7 N    3.288 --   159 C    1.261   162 C    1.225   137 Zn   0.457
   164   6 C    3.926 --   162 C    1.314   173 C    1.314   165 C    1.037
   165   6 C    3.988 --   166 C    1.383   172 C    1.373   164 C    1.037
   166   6 C    3.987 --   167 C    1.464   165 C    1.383   192 H    0.972
   167   6 C    3.990 --   166 C    1.464   168 C    1.355   193 H    0.970
   168   6 C    3.951 --   167 C    1.355   171 C    1.347   169 N    1.105
   169   7 N    3.175 --   168 C    1.105   170 C    0.972   194 H    0.932
   170   6 C    3.969 --   196 H    0.990   197 H    0.986   195 H    0.984
                           169 N    0.972
   171   6 C    3.989 --   172 C    1.476   168 C    1.347   198 H    0.971
   172   6 C    3.987 --   171 C    1.476   165 C    1.373   199 H    0.972
   173   6 C    3.911 --   164 C    1.314   177 N    1.226   174 C    1.186
   174   6 C    3.960 --   175 C    1.635   173 C    1.186   200 H    0.973
   175   6 C    3.959 --   174 C    1.635   176 C    1.193   201 H    0.966
   176   6 C    3.907 --   177 N    1.261   138 C    1.251   175 C    1.193
   177   7 N    3.288 --   176 C    1.261   173 C    1.226   137 Zn   0.457
   178   1 H    1.007 --   140 C    0.966
   179   1 H    1.005 --   141 C    0.973
   180   1 H    1.006 --   146 C    0.972
   181   1 H    0.999 --   147 C    0.971
   182   1 H    0.967 --   149 N    0.932
   183   1 H    1.012 --   150 C    0.986
   184   1 H    1.004 --   150 C    0.984
   185   1 H    1.007 --   150 C    0.990
   186   1 H    1.001 --   151 C    0.970
   187   1 H    1.006 --   152 C    0.972
   188   1 H    1.006 --   154 C    0.973
   189   1 H    1.008 --   155 C    0.965
   190   1 H    1.008 --   160 C    0.965
   191   1 H    1.006 --   161 C    0.973
   192   1 H    1.006 --   166 C    0.972
   193   1 H    1.001 --   167 C    0.970
   194   1 H    0.967 --   169 N    0.932
   195   1 H    1.004 --   170 C    0.984
   196   1 H    1.007 --   170 C    0.990
   197   1 H    1.012 --   170 C    0.986
   198   1 H    0.999 --   171 C    0.971
   199   1 H    1.006 --   172 C    0.972
   200   1 H    1.005 --   174 C    0.973
   201   1 H    1.007 --   175 C    0.966
 ---------------------------------------------------------------------------

           -------------------------------------------------
          | TOTAL ENERGY             -323.778092153970 Eh   |
          | GRADIENT NORM               0.000699399453 Eh/α |
          | HOMO-LUMO GAP               0.835224255404 eV   |
           -------------------------------------------------

 * finished run on 2022/07/30 at 08:44:49.828
