   * xtb version 6.5.1 (b24c23e) compiled by 'conda@728c89f4b128' on 2022-07-12
          program call               : xtb Fe_PhNH2_C6_3.xyz --gfn 1 --opt -T 48

   ID    Z sym.   atoms
    1   26 Fe     1, 61, 133
    2    6 C      2-6, 8-12, 14-18, 20-25, 27-31, 33-38, 62-66, 68-72, 74-78,
                  80-85, 87-91, 93-98, 121-132, 134-138, 140-144, 146-150,
                  152-157, 159-163, 165-170
    3    7 N      7, 13, 19, 26, 32, 39, 67, 73, 79, 86, 92, 99, 139, 145,
                  151, 158, 164, 171
    4    1 H      40-60, 100-120, 172-191

          :  Hamiltonian                  GFN1-xTB          :
 * total energy  :  -327.3295351 Eh     change       -0.2544652E-08 Eh
 * total energy  :  -327.5607657 Eh     change       -0.2312306E+00 Eh
 * total energy  :  -327.6659464 Eh     change       -0.1051807E+00 Eh
 * total energy  :  -327.7408855 Eh     change       -0.7493910E-01 Eh
 * total energy  :  -327.8082535 Eh     change       -0.6736801E-01 Eh
 * total energy  :  -327.8581780 Eh     change       -0.4992444E-01 Eh
 * total energy  :  -327.8863820 Eh     change       -0.2820404E-01 Eh
 * total energy  :  -327.9083427 Eh     change       -0.2196066E-01 Eh
 * total energy  :  -327.9239579 Eh     change       -0.1561526E-01 Eh
 * total energy  :  -327.9341986 Eh     change       -0.1024064E-01 Eh
 * total energy  :  -328.0273286 Eh     change       -0.8077194E-04 Eh
 * total energy  :  -328.0273621 Eh     change       -0.3354556E-04 Eh
 * total energy  :  -328.0273852 Eh     change       -0.2309912E-04 Eh
 * total energy  :  -328.0274053 Eh     change       -0.2006741E-04 Eh
 * total energy  :  -328.0274227 Eh     change       -0.1743593E-04 Eh
 * total energy  :  -328.0274385 Eh     change       -0.1574786E-04 Eh
 * total energy  :  -328.0274520 Eh     change       -0.1352232E-04 Eh
 * total energy  :  -328.0274612 Eh     change       -0.9170791E-05 Eh
 * total energy  :  -328.0274660 Eh     change       -0.4826287E-05 Eh
   *** GEOMETRY OPTIMIZATION CONVERGED AFTER 64 ITERATIONS ***

 final structure:
================
191
 xtb: 6.5.1 (b24c23e)
Fe          29.13630540503260        0.03047096994235        0.03987295286672
C           25.75638663730672        0.11102366505883        0.14076115803631
C           26.40519040580816        1.11753084610091       -0.54569124840686
C           25.73279870539614        2.16672238608324       -1.24972364826159
C           26.69196336848791        3.01839395150720       -1.68531602958963
C           27.94817992804929        2.49737379676650       -1.22957879466737
N           27.76207496492661        1.30730859423984       -0.58038722823651
C           29.16600792665906        3.15975304481041       -1.36528119954750
C           29.18111619219260        4.50856020588799       -1.97138330944488
C           29.94995071581242        4.76821599253408       -3.10942304088726
C           29.96530008269747        6.02629320602342       -3.68379944781847
C           29.22157095676270        7.06511153080150       -3.11718892880348
N           29.20450811357401        8.31449204235487       -3.71004537867681
C           28.44919269894934        6.81383775396364       -1.97971453858480
C           28.42963219572054        5.54956293961310       -1.41910358005225
C           30.36792960701667        2.60418743960413       -0.94431268064287
C           31.62754284970020        3.28512510762593       -0.98720313270466
C           32.57048405630483        2.38950994773625       -0.60447164846734
N           30.53913911809643        1.31933336150158       -0.48747670005030
C           31.88355098894384        1.16915575500449       -0.32128200003377
C           32.53810695964662       -0.03227670550257       -0.01856577745819
C           31.85180423964733       -1.21479502652172        0.28855636627828
C           32.50362925618757       -2.46324224738763        0.52878191983219
C           31.53953034874128       -3.33682370555406        0.90972857781956
C           30.30370397298320       -2.61209658359984        0.91734280827455
N           30.50732443162813       -1.32415185188244        0.48168591338209
C           29.09868384201420       -3.12831632162016        1.37695690824569
C           29.08017767890208       -4.48997562487830        1.95336882073375
C           29.88798378281863       -4.81173975072690        3.04771747269999
C           29.86963412845736       -6.08204079544806        3.59439042460943
C           29.05048637803477       -7.07118979249007        3.04308385741905
N           29.00117144457227       -8.33145985146295        3.61009446853779
C           28.23751828835095       -6.75721507952625        1.95032612483232
C           28.25270977427958       -5.48085420410703        1.41768288916340
C           27.90752663634002       -2.40762003126343        1.32291909127923
C           26.65895695956834       -2.87397609717426        1.85264385603857
C           25.71987294935212       -1.96159369486166        1.50510306500392
C           26.39740797362158       -0.93410982713452        0.77440647132453
N           27.74123994819343       -1.19665968197225        0.70885868483399
H           24.67313413535987        0.13991329871184        0.17931450212308
H           24.66444153767793        2.22661051888101       -1.38504780114192
H           26.57084710321786        3.91800182147730       -2.26672565921147
H           30.52254740481431        3.96513534902164       -3.56036535230738
H           30.55516493871324        6.21170368531704       -4.57482732172870
H           29.99776767707310        8.52213942171327       -4.29524130279984
H           28.93292266031116        9.07248973519555       -3.10468991670355
H           27.86902311163828        7.61574021350167       -1.53629349228703
H           27.84353075471497        5.36820941106546       -0.52477814357485
H           31.76348143052689        4.31752823802842       -1.26554430555047
H           33.63620417873726        2.52857368186062       -0.51865052018989
H           33.56184609489017       -2.63531610944177        0.41443956893578
H           31.64677064008769       -4.38003688062576        1.15868995457644
H           30.51841560986184       -4.04705471876499        3.48810605419177
H           30.49092147822669       -6.31545281629883        4.45214227163251
H           29.81031789641994       -8.59059461181950        4.15121051724301
H           28.66216207145704       -9.06164327921791        3.00468826411324
H           27.59792343305581       -7.52000281218998        1.51982108695843
H           27.63303359332909       -5.25070815974193        0.55788979188366
H           26.52981566899743       -3.78022327822094        2.42190292178978
H           24.66189932097605       -1.96798665731792        1.71466055098766
Fe          61.10095555436002       -0.00880942905273        0.05617656730201
C           64.48360153636375        0.03380349903405        0.18541602497775
C           63.83493007783127       -1.09007409712473        0.65509866449003
C           64.50989424073850       -2.24930783346953        1.15427503468426
C           63.55130979765979       -3.08731007772149        1.61624464080180
C           62.29262137003916       -2.42963377321070        1.41511129092160
N           62.47757769437610       -1.23036711885555        0.78249990264506
C           61.07233122690091       -2.92394795018003        1.86842159477563
C           61.05911947619588       -4.17909642065245        2.65140838139548
C           60.32255343589326       -5.28350349864129        2.21462375180097
C           60.31040560242857       -6.46061565997559        2.94099314453653
C           61.02478028036264       -6.55320721687135        4.13859020326588
N           61.04579134933832       -7.74028756171937        4.84832487910462
C           61.76512687088658       -5.45377530959772        4.58185588696644
C           61.78175975964478       -4.28459139515756        3.84296187571133
C           59.86718808401526       -2.27843700101312        1.62228373573109
C           58.60425891858237       -2.71460161096643        2.13898142818251
C           57.66093434897934       -1.89889058879757        1.60825505611799
N           59.69675916323874       -1.17403366034547        0.82187913262317
C           58.35060597273771       -0.96274457795418        0.77777678345971
C           57.69623326631893       -0.02004708849900       -0.02508198508859
C           58.38034336829795        0.91584084680326       -0.81115499862429
C           57.72413538186017        1.83185694263535       -1.68967549877607
C           58.68844950855880        2.63261476238482       -2.20535269283351
C           59.92919464098837        2.21340132898373       -1.62446892156856
N           59.72688615051431        1.12688422476609       -0.80661794238915
C           61.13946316891301        2.86656527474557       -1.81879963921982
C           61.16080016859100        4.10142966813113       -2.63317599427011
C           60.38509886323143        5.20697903477395       -2.27388662947807
C           60.40726452602384        6.36524203527755       -3.02966333933272
C           61.19801880758382        6.43736964278263       -4.17973914938825
N           61.25236025951025        7.60660903704590       -4.91641860525438
C           61.97902068629146        5.33722012694958       -4.54456622248896
C           61.96021131116343        4.18715346308040       -3.77630280031228
C           62.33443279935557        2.40823679311584       -1.26945912662399
C           63.58734607526274        3.09690518789973       -1.38416537003629
C           64.52564133495372        2.30155751358099       -0.81714434698041
C           63.84375596807696        1.13354406856706       -0.34858283599874
N           62.49861628885942        1.22960540274981       -0.59450074323634
H           65.56678552957209        0.05068320449023        0.23217275710853
H           65.57944989354058       -2.38785099024838        1.14182001338426
H           63.67416385076001       -4.06605707163863        2.05092243803797
H           59.77270715335732       -5.22247356162482        1.28181364513581
H           59.74576856433029       -7.31533228318565        2.58470051945996
H           60.26801639154095       -8.35672437031698        4.67526943628029
H           61.28978643113904       -7.65293997561716        5.82178428807187
H           62.32281421027736       -5.52021038009355        5.50968341380027
H           62.34311659982922       -3.42964952965291        4.20376158096241
H           58.46669766543852       -3.53338296493678        2.82632295086430
H           56.59326364432341       -1.91732784619633        1.75708507755759
H           56.66313661501541        1.84587660882184       -1.88100386993755
H           58.57834316234042        3.43248295292584       -2.91939188693005
H           59.77691565238925        5.16281763441332       -1.37705407906865
H           59.81094771324502        7.22120684294522       -2.73306822957300
H           60.45794476378865        8.21707594368961       -4.81162715776296
H           61.56417630738690        7.50002039277283       -5.86825606558018
H           62.59668736493455        5.38826719489240       -5.43459380707053
H           62.55524181497685        3.33146891351822       -4.07623822783131
H           63.71930881682945        4.06718451404127       -1.83488414089471
H           65.58580921874631        2.47290698237817       -0.71734276086090
C           37.73390065469082       -0.08279288534321       -0.04492445127234
C           36.50308917857418       -0.07626617332370       -0.04367853890563
C           35.16301029008008       -0.06604141246313       -0.03677199343622
C           33.93693869758938       -0.05280189921760       -0.02952796956726
C           39.07391728939063       -0.08134193068311       -0.04556658208878
C           40.30026240619373       -0.07400229246157       -0.04182768430713
C           53.72931375833211       -0.01600153763666       -0.06981600725369
C           52.49892636179607       -0.01717542245033       -0.07149766308236
C           51.15799073125878       -0.01948774462757       -0.06722435872525
C           49.93204475415215       -0.01775559009383       -0.05550633148828
C           55.07036046882666       -0.01574324784044       -0.05868327190370
C           56.29608639950089       -0.01826813959255       -0.04768284169084
Fe          45.11594541405627       -0.02984072685580        0.00544199175730
C           41.69903848743491       -0.06260629696538       -0.03206816447223
C           42.36091416952317        1.09138940470947       -0.47183521783647
C           41.66913254931146        2.26130068220515       -0.91139962905331
C           42.61489565671357        3.20064509697277       -1.15495118049378
C           43.88167022530928        2.59251140991659       -0.87907596086613
N           43.70856349163519        1.29331753554260       -0.46667785874346
C           45.09383929738057        3.26912914492891       -0.94807932388960
C           45.08566952122973        4.69593071178729       -1.34550233348296
C           44.63533848584206        5.08199747346143       -2.61030282609602
C           44.63122246043022        6.41366329968188       -2.98482761222062
C           45.07468506093209        7.39452931434275       -2.09336084039436
N           45.02422725469473        8.73064329783555       -2.44522391330857
C           45.51460425048905        7.01676691606608       -0.82165942966634
C           45.52734398324783        5.68175563814623       -0.45959517221386
C           46.31590423815016        2.66712880225547       -0.67040546716698
C           47.57574978131646        3.33525688902286       -0.80057017296511
C           48.53565852190177        2.41036334119734       -0.55643847131878
N           46.50651868578857        1.34676456648373       -0.34284379492517
C           47.85833951842979        1.18287609419985       -0.28313299352992
C           48.53231753347362       -0.01918409860406       -0.03222661426497
C           47.87060887899239       -1.22037240908602        0.25327612852903
C           48.55743883853313       -2.45129574116462        0.48340606063639
C           47.60956213129381       -3.37201091502488        0.78530766874689
C           46.34918807760054       -2.69392798041802        0.74740842638100
N           46.52360611226153       -1.37983936215130        0.38846633569896
C           45.13565218649501       -3.30202083181626        1.05013753364403
C           45.14542224785111       -4.71052920140412        1.50293343623508
C           44.46188383951712       -5.69498064055453        0.78401135927255
C           44.47445890425256       -7.01400661565632        1.19963690120610
C           45.16993073448379       -7.37852012566417        2.35598517507563
N           45.14303250189676       -8.68661528978699        2.80246480936575
C           45.84405782387036       -6.39733394648149        3.08847597379698
C           45.83780273008340       -5.08284931363904        2.65833983923797
C           43.91371074541550       -2.64915841313163        0.93624534164677
C           42.65758972145516       -3.24497501745810        1.27897694887064
C           41.69770362695483       -2.34346281328666        0.95809136017556
C           42.37322124880078       -1.19667099128467        0.43996011299326
N           43.72366633702325       -1.37650494477172        0.45468974554808
H           40.59804158110980        2.34455343356542       -1.00110804490432
H           42.47297428484079        4.21911375914644       -1.47713054139498
H           44.30647415121886        4.32493559680985       -3.31370258039907
H           44.28713779004458        6.70089487171317       -3.97239361254102
H           45.01270892109837        8.91416553555404       -3.43552172465430
H           45.63583891600472        9.33645973765029       -1.92227158318577
H           45.84680803916348        7.77476202939973       -0.12076477801678
H           45.86254121596239        5.39671099109415        0.53160609044320
H           47.70253617670477        4.37239089384527       -1.06457021898685
H           49.60680589915115        2.53204568131499       -0.56642294393776
H           49.62545292724737       -2.58130366634560        0.41484324310531
H           47.74351937140055       -4.41904623240842        1.00272502060775
H           43.93551943084070       -5.42306176807898       -0.12432986372199
H           43.94809338344836       -7.77061504501330        0.62811150625124
H           45.89519816879066       -8.94535428263639        3.42043646255781
H           44.93383287966484       -9.37654687297508        2.09900920062868
H           46.37283246682634       -6.67179488239715        3.99467902683586
H           46.35585141444765       -4.32575488240680        3.23671758669998
H           42.53374658484629       -4.22183834000002        1.71686928685079
H           40.62849878311623       -2.43073913579950        1.06496376908641

          :  Hamiltonian                  GFN1-xTB          :
         :: total energy            -328.027465983852 Eh    ::
         :: gradient norm              0.000553755382 Eh/a0 ::
         :: HOMO-LUMO gap              0.048286180324 eV    ::
         :: SCC energy              -333.451367517749 Eh    ::
         :: repulsion energy           5.593624528383 Eh    ::

    * Orbital Energies and Occupations

         #    Occupation            Energy/Eh            Energy/eV
      -------------------------------------------------------------
         1        2.0000           -0.7822429             -21.2859
       ...           ...                  ...                  ...
       292        2.0000           -0.3881498             -10.5621
       293        2.0000           -0.3853153             -10.4850
       294        1.9954           -0.3795989             -10.3294
       295        1.9926           -0.3791499             -10.3172
       296        1.9921           -0.3790903             -10.3156
       297        1.9915           -0.3790177             -10.3136
       298        1.9723           -0.3778890             -10.2829
       299        1.9652           -0.3776673             -10.2769
       300        1.9593           -0.3775177             -10.2728
       301        1.9571           -0.3774662             -10.2714
       302        1.9557           -0.3774345             -10.2705
       303        1.9534           -0.3773847             -10.2692
       304        1.2061           -0.3742333             -10.1834 (HOMO)
       305        0.3801           -0.3724588             -10.1351 (LUMO)
       306        0.3410           -0.3723329             -10.1317
       307        0.3382           -0.3723235             -10.1314
       308                         -0.3370985              -9.1729
       309                         -0.3265259              -8.8852
       310                         -0.3213450              -8.7442
       311                         -0.3202371              -8.7141
       312                         -0.3187589              -8.6739
       313                         -0.3182660              -8.6605
       314                         -0.3000314              -8.1643
       315                         -0.2942202              -8.0061
       ...                                ...                  ...
       655                          1.5784824              42.9527
      -------------------------------------------------------------
                  HL-Gap            0.0017745 Eh            0.0483 eV

Wiberg/Mayer (AO) data.
largest (>0.10) Wiberg bond orders for each atom

     #   Z sym  total        # sym  WBO       # sym  WBO       # sym  WBO
 ---------------------------------------------------------------------------
     1  26 Fe   3.103 --     7 N    0.663    39 N    0.662    26 N    0.656
                            19 N    0.654
     2   6 C    3.915 --    38 C    1.363     3 C    1.362    40 H    0.970
     3   6 C    3.926 --     2 C    1.362     7 N    1.208     4 C    1.176
     4   6 C    3.957 --     5 C    1.645     3 C    1.176    41 H    0.975
     5   6 C    3.962 --     4 C    1.645     6 C    1.178    42 H    0.973
     6   6 C    3.919 --     8 C    1.307     7 N    1.227     5 C    1.178
     7   7 N    3.375 --     6 C    1.227     3 C    1.208     1 Fe   0.663
     8   6 C    3.919 --    16 C    1.328     6 C    1.307     9 C    1.039
     9   6 C    3.985 --    15 C    1.377    10 C    1.377     8 C    1.039
    10   6 C    3.985 --    11 C    1.471     9 C    1.377    43 H    0.972
    11   6 C    3.988 --    10 C    1.471    12 C    1.351    44 H    0.972
    12   6 C    3.949 --    11 C    1.351    14 C    1.351    13 N    1.119
    13   7 N    3.135 --    12 C    1.119    46 H    0.933    45 H    0.933
    14   6 C    3.988 --    15 C    1.471    12 C    1.351    47 H    0.972
    15   6 C    3.986 --    14 C    1.471     9 C    1.377    48 H    0.972
    16   6 C    3.917 --     8 C    1.328    19 N    1.201    17 C    1.182
    17   6 C    3.957 --    18 C    1.634    16 C    1.182    49 H    0.973
    18   6 C    3.960 --    17 C    1.634    20 C    1.191    50 H    0.974
    19   7 N    3.373 --    20 C    1.246    16 C    1.201     1 Fe   0.654
    20   6 C    3.904 --    21 C    1.246    19 N    1.246    18 C    1.191
    21   6 C    3.915 --    20 C    1.246    22 C    1.246   124 C    1.210
    22   6 C    3.904 --    26 N    1.247    21 C    1.246    23 C    1.191
    23   6 C    3.960 --    24 C    1.634    22 C    1.191    51 H    0.974
    24   6 C    3.957 --    23 C    1.634    25 C    1.182    52 H    0.973
    25   6 C    3.917 --    27 C    1.330    26 N    1.200    24 C    1.182
    26   7 N    3.374 --    22 C    1.247    25 C    1.200     1 Fe   0.656
    27   6 C    3.919 --    25 C    1.330    35 C    1.305    28 C    1.039
    28   6 C    3.985 --    34 C    1.377    29 C    1.376    27 C    1.039
    29   6 C    3.986 --    30 C    1.471    28 C    1.376    53 H    0.972
    30   6 C    3.988 --    29 C    1.471    31 C    1.351    54 H    0.972
    31   6 C    3.949 --    30 C    1.351    33 C    1.351    32 N    1.119
    32   7 N    3.135 --    31 C    1.119    56 H    0.933    55 H    0.933
    33   6 C    3.988 --    34 C    1.471    31 C    1.351    57 H    0.972
    34   6 C    3.986 --    33 C    1.471    28 C    1.377    58 H    0.972
    35   6 C    3.919 --    27 C    1.305    39 N    1.229    36 C    1.178
    36   6 C    3.962 --    37 C    1.645    35 C    1.178    59 H    0.973
    37   6 C    3.958 --    36 C    1.645    38 C    1.176    60 H    0.975
    38   6 C    3.926 --     2 C    1.363    39 N    1.207    37 C    1.176
    39   7 N    3.374 --    35 C    1.229    38 C    1.207     1 Fe   0.662
    40   1 H    1.001 --     2 C    0.970
    41   1 H    0.998 --     4 C    0.975
    42   1 H    1.005 --     5 C    0.973
    43   1 H    1.005 --    10 C    0.972
    44   1 H    0.998 --    11 C    0.972
    45   1 H    0.960 --    13 N    0.933
    46   1 H    0.960 --    13 N    0.933
    47   1 H    0.998 --    14 C    0.972
    48   1 H    1.005 --    15 C    0.972
    49   1 H    1.005 --    17 C    0.973
    50   1 H    1.002 --    18 C    0.974
    51   1 H    1.002 --    23 C    0.974
    52   1 H    1.005 --    24 C    0.973
    53   1 H    1.005 --    29 C    0.972
    54   1 H    0.998 --    30 C    0.972
    55   1 H    0.960 --    32 N    0.933
    56   1 H    0.960 --    32 N    0.933
    57   1 H    0.998 --    33 C    0.972
    58   1 H    1.005 --    34 C    0.972
    59   1 H    1.005 --    36 C    0.973
    60   1 H    0.998 --    37 C    0.975
    61  26 Fe   3.098 --    67 N    0.663    99 N    0.662    86 N    0.656
                            79 N    0.656
    62   6 C    3.917 --    98 C    1.363    63 C    1.362   100 H    0.970
    63   6 C    3.926 --    62 C    1.362    67 N    1.208    64 C    1.176
    64   6 C    3.959 --    65 C    1.646    63 C    1.176   101 H    0.975
    65   6 C    3.962 --    64 C    1.646    66 C    1.177   102 H    0.973
    66   6 C    3.919 --    68 C    1.308    67 N    1.227    65 C    1.177
    67   7 N    3.376 --    66 C    1.227    63 C    1.208    61 Fe   0.663
    68   6 C    3.921 --    76 C    1.329    66 C    1.308    69 C    1.037
    69   6 C    3.985 --    70 C    1.378    75 C    1.378    68 C    1.037
    70   6 C    3.987 --    71 C    1.471    69 C    1.378   103 H    0.973
    71   6 C    3.988 --    70 C    1.471    72 C    1.352   104 H    0.972
    72   6 C    3.950 --    71 C    1.352    74 C    1.352    73 N    1.118
    73   7 N    3.135 --    72 C    1.118   106 H    0.933   105 H    0.933
    74   6 C    3.988 --    75 C    1.471    72 C    1.352   107 H    0.972
    75   6 C    3.986 --    74 C    1.471    69 C    1.378   108 H    0.972
    76   6 C    3.917 --    68 C    1.329    79 N    1.202    77 C    1.182
    77   6 C    3.958 --    78 C    1.635    76 C    1.182   109 H    0.973
    78   6 C    3.960 --    77 C    1.635    80 C    1.191   110 H    0.974
    79   7 N    3.375 --    80 C    1.245    76 C    1.202    61 Fe   0.656
    80   6 C    3.905 --    81 C    1.249    79 N    1.245    78 C    1.191
    81   6 C    3.917 --    80 C    1.249    82 C    1.248   132 C    1.205
    82   6 C    3.905 --    81 C    1.248    86 N    1.246    83 C    1.191
    83   6 C    3.960 --    84 C    1.635    82 C    1.191   111 H    0.974
    84   6 C    3.957 --    83 C    1.635    85 C    1.182   112 H    0.973
    85   6 C    3.917 --    87 C    1.331    86 N    1.200    84 C    1.182
    86   7 N    3.375 --    82 C    1.246    85 C    1.200    61 Fe   0.656
    87   6 C    3.921 --    85 C    1.331    95 C    1.307    88 C    1.038
    88   6 C    3.985 --    89 C    1.378    94 C    1.378    87 C    1.038
    89   6 C    3.987 --    90 C    1.471    88 C    1.378   113 H    0.972
    90   6 C    3.988 --    89 C    1.471    91 C    1.352   114 H    0.972
    91   6 C    3.950 --    90 C    1.352    93 C    1.352    92 N    1.118
    92   7 N    3.135 --    91 C    1.118   116 H    0.933   115 H    0.933
    93   6 C    3.988 --    94 C    1.471    91 C    1.352   117 H    0.972
    94   6 C    3.986 --    93 C    1.471    88 C    1.378   118 H    0.973
    95   6 C    3.919 --    87 C    1.307    99 N    1.228    96 C    1.178
    96   6 C    3.962 --    97 C    1.646    95 C    1.178   119 H    0.973
    97   6 C    3.958 --    96 C    1.646    98 C    1.175   120 H    0.975
    98   6 C    3.926 --    62 C    1.363    99 N    1.207    97 C    1.175
    99   7 N    3.375 --    95 C    1.228    98 C    1.207    61 Fe   0.662
   100   1 H    1.001 --    62 C    0.970
   101   1 H    0.998 --    64 C    0.975
   102   1 H    1.005 --    65 C    0.973
   103   1 H    1.005 --    70 C    0.973
   104   1 H    0.998 --    71 C    0.972
   105   1 H    0.960 --    73 N    0.933
   106   1 H    0.960 --    73 N    0.933
   107   1 H    0.998 --    74 C    0.972
   108   1 H    1.005 --    75 C    0.972
   109   1 H    1.005 --    77 C    0.973
   110   1 H    1.002 --    78 C    0.974
   111   1 H    1.002 --    83 C    0.974
   112   1 H    1.005 --    84 C    0.973
   113   1 H    1.005 --    89 C    0.972
   114   1 H    0.998 --    90 C    0.972
   115   1 H    0.960 --    92 N    0.933
   116   1 H    0.960 --    92 N    0.933
   117   1 H    0.998 --    93 C    0.972
   118   1 H    1.005 --    94 C    0.973
   119   1 H    1.005 --    96 C    0.973
   120   1 H    0.998 --    97 C    0.975
   121   6 C    3.915 --   122 C    2.333   125 C    1.359   124 C    0.186
   122   6 C    3.913 --   121 C    2.333   123 C    1.358   126 C    0.186
   123   6 C    3.922 --   124 C    2.415   122 C    1.358
   124   6 C    3.876 --   123 C    2.415    21 C    1.210   121 C    0.186
   125   6 C    3.919 --   126 C    2.413   121 C    1.359
   126   6 C    3.878 --   125 C    2.413   134 C    1.212   122 C    0.186
   127   6 C    3.914 --   128 C    2.339   131 C    1.353   130 C    0.186
   128   6 C    3.915 --   127 C    2.339   129 C    1.354   132 C    0.186
   129   6 C    3.919 --   130 C    2.419   128 C    1.354
   130   6 C    3.879 --   129 C    2.419   153 C    1.208   127 C    0.186
   131   6 C    3.923 --   132 C    2.422   127 C    1.353
   132   6 C    3.877 --   131 C    2.422    81 C    1.205   128 C    0.186
   133  26 Fe   3.035 --   151 N    0.644   158 N    0.644   139 N    0.644
                           171 N    0.643
   134   6 C    3.902 --   135 C    1.245   170 C    1.243   126 C    1.212
   135   6 C    3.906 --   139 N    1.250   134 C    1.245   136 C    1.192
   136   6 C    3.959 --   137 C    1.633   135 C    1.192   172 H    0.973
   137   6 C    3.959 --   136 C    1.633   138 C    1.185   173 H    0.972
   138   6 C    3.913 --   140 C    1.321   139 N    1.207   137 C    1.185
   139   7 N    3.364 --   135 C    1.250   138 C    1.207   133 Fe   0.644
   140   6 C    3.912 --   138 C    1.321   148 C    1.319   141 C    1.032
   141   6 C    3.984 --   142 C    1.379   147 C    1.379   140 C    1.032
   142   6 C    3.987 --   143 C    1.470   141 C    1.379   174 H    0.973
   143   6 C    3.988 --   142 C    1.470   144 C    1.352   175 H    0.972
   144   6 C    3.950 --   143 C    1.352   146 C    1.352   145 N    1.119
   145   7 N    3.136 --   144 C    1.119   176 H    0.933   177 H    0.932
   146   6 C    3.988 --   147 C    1.470   144 C    1.352   178 H    0.972
   147   6 C    3.987 --   146 C    1.470   141 C    1.379   179 H    0.973
   148   6 C    3.913 --   140 C    1.319   151 N    1.208   149 C    1.185
   149   6 C    3.959 --   150 C    1.632   148 C    1.185   180 H    0.973
   150   6 C    3.959 --   149 C    1.632   152 C    1.192   181 H    0.973
   151   7 N    3.365 --   152 C    1.248   148 C    1.208   133 Fe   0.644
   152   6 C    3.906 --   151 N    1.248   153 C    1.246   150 C    1.192
   153   6 C    3.903 --   152 C    1.246   154 C    1.246   130 C    1.208
   154   6 C    3.906 --   158 N    1.248   153 C    1.246   155 C    1.193
   155   6 C    3.959 --   156 C    1.630   154 C    1.193   182 H    0.973
   156   6 C    3.959 --   155 C    1.630   157 C    1.186   183 H    0.973
   157   6 C    3.913 --   159 C    1.316   158 N    1.209   156 C    1.186
   158   7 N    3.364 --   154 C    1.248   157 C    1.209   133 Fe   0.644
   159   6 C    3.913 --   167 C    1.320   157 C    1.316   160 C    1.037
   160   6 C    3.984 --   166 C    1.377   161 C    1.377   159 C    1.037
   161   6 C    3.986 --   162 C    1.471   160 C    1.377   184 H    0.972
   162   6 C    3.988 --   161 C    1.471   163 C    1.351   185 H    0.972
   163   6 C    3.949 --   165 C    1.351   162 C    1.351   164 N    1.120
   164   7 N    3.137 --   163 C    1.120   186 H    0.932   187 H    0.932
   165   6 C    3.988 --   166 C    1.471   163 C    1.351   188 H    0.972
   166   6 C    3.986 --   165 C    1.471   160 C    1.377   189 H    0.973
   167   6 C    3.914 --   159 C    1.320   171 N    1.206   168 C    1.185
   168   6 C    3.959 --   169 C    1.631   167 C    1.185   190 H    0.972
   169   6 C    3.959 --   168 C    1.631   170 C    1.193   191 H    0.973
   170   6 C    3.906 --   171 N    1.250   134 C    1.243   169 C    1.193
   171   7 N    3.364 --   170 C    1.250   167 C    1.206   133 Fe   0.643
   172   1 H    1.002 --   136 C    0.973
   173   1 H    1.005 --   137 C    0.972
   174   1 H    1.004 --   142 C    0.973
   175   1 H    0.998 --   143 C    0.972
   176   1 H    0.960 --   145 N    0.933
   177   1 H    0.960 --   145 N    0.932
   178   1 H    0.998 --   146 C    0.972
   179   1 H    1.004 --   147 C    0.973
   180   1 H    1.006 --   149 C    0.973
   181   1 H    1.002 --   150 C    0.973
   182   1 H    1.002 --   155 C    0.973
   183   1 H    1.005 --   156 C    0.973
   184   1 H    1.005 --   161 C    0.972
   185   1 H    0.998 --   162 C    0.972
   186   1 H    0.960 --   164 N    0.932
   187   1 H    0.960 --   164 N    0.932
   188   1 H    0.998 --   165 C    0.972
   189   1 H    1.005 --   166 C    0.973
   190   1 H    1.005 --   168 C    0.972
   191   1 H    1.002 --   169 C    0.973
 ---------------------------------------------------------------------------

           -------------------------------------------------
          | TOTAL ENERGY             -328.027465983852 Eh   |
          | GRADIENT NORM               0.000553755382 Eh/α |
          | HOMO-LUMO GAP               0.048286180324 eV   |
           -------------------------------------------------

 * finished run on 2022/07/29 at 19:28:30.974
