   * xtb version 6.5.1 (b24c23e) compiled by 'conda@728c89f4b128' on 2022-07-12
          program call               : xtb Co_PhNH2_C6_2.xyz --gfn 1 --opt -T 48

   ID    Z sym.   atoms
    1   27 Co     1, 61
    2    6 C      2-6, 8-12, 14-18, 20-25, 27-31, 33-38, 62-66, 68-72, 74-78,
                  80-85, 87-91, 93-98, 121-126
    3    7 N      7, 13, 19, 26, 32, 39, 67, 73, 79, 86, 92, 99
    4    1 H      40-60, 100-120
########################################################################
[WARNING] Please study the warnings concerning your input carefully
-1- prog_main_parseArguments: Unknown option '-T' provided
########################################################################

          :  Hamiltonian                  GFN1-xTB          :
 * total energy  :  -215.6706924 Eh     change       -0.4096734E-08 Eh
 * total energy  :  -215.7910356 Eh     change       -0.1203432E+00 Eh
 * total energy  :  -215.8453707 Eh     change       -0.5433512E-01 Eh
 * total energy  :  -215.8612218 Eh     change       -0.1585110E-01 Eh
 * total energy  :  -215.8689343 Eh     change       -0.7712462E-02 Eh
 * total energy  :  -215.8730296 Eh     change       -0.4095265E-02 Eh
 * total energy  :  -215.8748146 Eh     change       -0.1785045E-02 Eh
 * total energy  :  -215.8756701 Eh     change       -0.8554989E-03 Eh
 * total energy  :  -215.8762690 Eh     change       -0.5989078E-03 Eh
 * total energy  :  -215.8770603 Eh     change       -0.7912301E-03 Eh
 * total energy  :  -215.8838140 Eh     change       -0.1315121E-04 Eh
 * total energy  :  -215.8838275 Eh     change       -0.1348136E-04 Eh
 * total energy  :  -215.8838439 Eh     change       -0.1633515E-04 Eh
 * total energy  :  -215.8838630 Eh     change       -0.1910277E-04 Eh
 * total energy  :  -215.8838824 Eh     change       -0.1946328E-04 Eh
 * total energy  :  -215.8838985 Eh     change       -0.1610858E-04 Eh
 * total energy  :  -215.8839094 Eh     change       -0.1092177E-04 Eh
 * total energy  :  -215.8839161 Eh     change       -0.6620422E-05 Eh
 * total energy  :  -215.8839205 Eh     change       -0.4453000E-05 Eh
   *** GEOMETRY OPTIMIZATION CONVERGED AFTER 58 ITERATIONS ***

 final structure:
================
126
 xtb: 6.5.1 (b24c23e)
Co          14.13045443810826        0.04055470340533       -0.02875909028992
C           10.76198629091288        0.12331435775769        0.10216369438077
C           11.41469268465329        1.06933489098622       -0.65976955431225
C           10.75255968570631        2.05972919745300       -1.45178871305719
C           11.71117995981614        2.91028823964662       -1.89066465625744
C           12.95541827237269        2.44821484173459       -1.34950159755282
N           12.77064486845985        1.28140090901687       -0.65335235961107
C           14.14854768599935        3.15921185959687       -1.40964455938618
C           14.15813687450380        4.50613213675317       -2.01875183827578
C           15.00932724520976        4.79866949412238       -3.08797417142396
C           15.02133369797351        6.05706819697832       -3.66186435082843
C           14.18915195947157        7.06318473798185       -3.16357505916230
N           14.17220585118700        8.31232248015771       -3.75770891498959
C           13.33205465694351        6.77807544587212       -2.09715564091961
C           13.31805591125859        5.51365994239508       -1.53663929046071
C           15.33116864525033        2.63712915726946       -0.90390637248688
C           16.57465987845527        3.34592699622223       -0.86930020352074
C           17.52315135796266        2.45466107650528       -0.49101885787279
N           15.50739669646490        1.34192463016933       -0.47276725023023
C           16.85489948115938        1.20960748604052       -0.28467130939964
C           17.52147263921621        0.00217744623912       -0.06079470322692
C           16.82859346870639       -1.18863126256431        0.17414739711490
C           17.46526092504168       -2.45594996739818        0.33906892319770
C           16.50249577729891       -3.32542109650413        0.73268887756217
C           15.28339606644538       -2.58017942913533        0.82117457849520
N           15.48620835609409       -1.28194338539631        0.41206243777672
C           14.10514021930888       -3.07136469339572        1.36609553442879
C           14.09138935976961       -4.42862857252500        1.95251598788939
C           14.96582449315406       -4.76563776394544        2.98923786491103
C           14.95189236155318       -6.03182140792320        3.54577637040738
C           14.06965006208914       -7.00131141270027        3.06114317648221
N           14.02630836942128       -8.25670529666005        3.64032886894422
C           13.19060298215140       -6.67193130847468        2.02570776672758
C           13.20219465515544       -5.39942164025884        1.48362096153855
C           12.93829861910313       -2.31611642143995        1.37726596616310
C           11.70900077120474       -2.73954906206003        1.98093974964992
C           10.76533077085028       -1.83585505012810        1.62462628661296
C           11.42109907197194       -0.85673303332342        0.81297734550582
N           12.76524776336708       -1.12271102739564        0.72438634653077
H            9.67915936996531        0.14715159266269        0.13841352636012
H            9.69001588038405        2.08621561759315       -1.63476389957829
H           11.59833004403576        3.77619954463017       -2.52275742851046
H           15.65154069758009        4.02091270235131       -3.48653791868814
H           15.67726881537559        6.26801742229609       -4.49942171360117
H           15.00533760804031        8.55302343286174       -4.27038977695356
H           13.82047687932606        9.05697450724391       -3.17744440890405
H           12.68192397081286        7.55406513342094       -1.70805088239309
H           12.66484728680889        5.30675567561455       -0.69598073242348
H           16.69607022669897        4.39074852443796       -1.10466873446434
H           18.58283754742306        2.60889974134264       -0.36567928006682
H           18.51490860395273       -2.63982116806776        0.17494883201747
H           16.59886851031583       -4.37773316823817        0.94539236366089
H           15.64699023334358       -4.01616274320150        3.37718372929341
H           15.62571202215913       -6.27711603222516        4.35946260871102
H           14.86422339226776       -8.53278418776454        4.12669891007888
H           13.63105726896688       -8.98127962506037        3.06275204294602
H           12.50233551654472       -7.41963922036861        1.64685639498680
H           12.52924752925844       -5.15710818423453        0.66832390700787
H           11.59589097026381       -3.61753792118383        2.59609311985130
H            9.71541423714917       -1.82165490268160        1.87085108640155
Co          30.07868500960328       -0.04804453595406        0.01636975284013
C           33.44455445513963        0.01503411086343        0.15809015300206
C           32.79143255930296       -1.14740287774056        0.51077011355315
C           33.45013438222080       -2.36222118703924        0.88063996500663
C           32.49089560286349       -3.19776762471749        1.34682499159665
C           31.24981051791424       -2.48390458827519        1.27930827615869
N           31.43631705168976       -1.25559713621575        0.69933936726552
C           30.06010265128957       -2.91878765049280        1.85307841951297
C           30.05029654032730       -4.17027919780940        2.63889555810822
C           29.17586767774673       -5.21056196652912        2.31198002932218
C           29.16336231746227       -6.38400459422806        3.04392055851325
C           30.01932231418235       -6.53749227999724        4.13795137171513
N           30.03539914541223       -7.72317175273685        4.85010095781823
C           30.89990571852321       -5.50406186613249        4.46929575554289
C           30.91348428447819       -4.33820490150392        3.72531338378067
C           28.88123933582332       -2.19919124733438        1.71057484094683
C           27.64093484931768       -2.54834094165267        2.33477267761514
C           26.69226816482973       -1.74082298154122        1.80036388222044
N           28.70387607841205       -1.12949145789879        0.86289924351745
C           27.35733028546245       -0.89392448160817        0.86251422058619
C           26.69029219491684       -0.05170252128055       -0.03112392569950
C           27.38431625986400        0.79053893510862       -0.90458717734919
C           26.75191863662851        1.61536940419871       -1.88342234987052
C           27.71511427530398        2.42385718927601       -2.39048641642701
C           28.93009008175706        2.09910952943630       -1.70656206138068
N           28.72527983037143        1.04632494081612       -0.84449356446420
C           30.10427274793952        2.83381404562504       -1.80198363183222
C           30.11793936582820        4.07230765244790       -2.60861949834045
C           29.22086191286012        5.10921068296667       -2.33745075743713
C           29.23339440792548        6.27236814446759       -3.08566272452456
C           30.13786176464814        6.41772844422948       -4.14114136672734
N           30.17901699978040        7.59420058034450       -4.86722805736228
C           31.03999968522445        5.38664190752802       -4.41761375185437
C           31.02891811894653        4.23180077389656       -3.65649165275544
C           31.26673607281003        2.43278795780810       -1.15327943224536
C           32.49224942273412        3.17645241511718       -1.15534557522594
C           33.43616070540040        2.37904838966716       -0.60055135561372
C           32.78430700878138        1.15433980149247       -0.25035140093141
N           31.44124326829771        1.22539768637838       -0.52712430881352
H           34.52739661776886        0.03164725192684        0.19741016341585
H           34.51101233274716       -2.53446443978785        0.79095756944555
H           32.60176839342573       -4.20757075612116        1.70750998163063
H           28.51544719302536       -5.10367535721741        1.45838189889083
H           28.48877598973530       -7.18866258472728        2.77246077368173
H           29.19241227018104       -8.27113314485473        4.78743417480239
H           30.41136575139272       -7.65714158838930        5.78238622419663
H           31.56860559802175       -5.61855875684320        5.31544258702090
H           31.58489513902534       -3.53291517212903        4.00265660528542
H           27.52129119154513       -3.31321514399510        3.08474739823027
H           25.63436163241275       -1.71398506328824        2.00663995276237
H           25.70455607055119        1.57275817435718       -2.13588034647539
H           27.62121750822003        3.17410462385167       -3.15874161211691
H           28.52267566850392        5.00852135138286       -1.51369209239524
H           28.54129525962204        7.07537467151134       -2.85664171986383
H           29.33166327672545        8.13872116832838       -4.84867347400210
H           30.59760302230438        7.51956240871267       -5.78046870309467
H           31.74561930802546        5.49462781420578       -5.23415195642222
H           31.71953431508626        3.42875817668669       -3.88981340377953
H           32.60318943144902        4.17911240457952       -1.53542349428944
H           34.48395154225602        2.58043378899141       -0.44331562225618
C           22.72036759940883       -0.04802828928188       -0.08094404435892
C           21.49156551352716       -0.04115920414824       -0.08442374023032
C           20.14794552609939       -0.03054037092752       -0.08213530425277
C           18.92382290824268       -0.01557989564574       -0.07455725783889
C           24.06396607566823       -0.05159918603951       -0.07036393662916
C           25.28810967864586       -0.05352981867569       -0.05395851799576

          :  Hamiltonian                  GFN1-xTB          :
         :: total energy            -215.883920522315 Eh    ::
         :: gradient norm              0.000272892838 Eh/a0 ::
         :: HOMO-LUMO gap              0.008720458890 eV    ::
         :: SCC energy              -219.382632702177 Eh    ::
         :: repulsion energy           3.608413016205 Eh    ::

    * Orbital Energies and Occupations

         #    Occupation            Energy/Eh            Energy/eV
      -------------------------------------------------------------
         1        2.0000           -0.7803049             -21.2332
       ...           ...                  ...                  ...
       188        2.0000           -0.3975339             -10.8174
       189        2.0000           -0.3973504             -10.8125
       190        2.0000           -0.3887526             -10.5785
       191        2.0000           -0.3886916             -10.5768
       192        2.0000           -0.3864566             -10.5160
       193        2.0000           -0.3864230             -10.5151
       194        1.9998           -0.3831099             -10.4250
       195        1.9998           -0.3830851             -10.4243
       196        1.9998           -0.3830402             -10.4231
       197        1.9998           -0.3830111             -10.4223
       198        1.9998           -0.3828333             -10.4174
       199        1.8851           -0.3768077             -10.2535
       200        1.1417           -0.3744205             -10.1885 (HOMO)
       201        0.9740           -0.3741000             -10.1798 (LUMO)
       202                         -0.3305217              -8.9940
       203                         -0.3206285              -8.7247
       204                         -0.3190640              -8.6822
       205                         -0.3189292              -8.6785
       206                         -0.2926390              -7.9631
       207                         -0.2875865              -7.8256
       208                         -0.2842094              -7.7337
       209                         -0.2835895              -7.7169
       210                         -0.2758207              -7.5055
       211                         -0.2591945              -7.0530
       ...                                ...                  ...
       430                          1.5834932              43.0890
      -------------------------------------------------------------
                  HL-Gap            0.0003205 Eh            0.0087 eV

Wiberg/Mayer (AO) data.
largest (>0.10) Wiberg bond orders for each atom

     #   Z sym  total        # sym  WBO       # sym  WBO       # sym  WBO
 ---------------------------------------------------------------------------
     1  27 Co   3.054 --    39 N    0.640     7 N    0.636    19 N    0.635
                            26 N    0.632
     2   6 C    3.927 --    38 C    1.366     3 C    1.362    40 H    0.970
     3   6 C    3.926 --     2 C    1.362     7 N    1.201     4 C    1.178
     4   6 C    3.958 --     5 C    1.644     3 C    1.178    41 H    0.975
     5   6 C    3.963 --     4 C    1.644     6 C    1.179    42 H    0.973
     6   6 C    3.919 --     8 C    1.313     7 N    1.214     5 C    1.179
     7   7 N    3.345 --     6 C    1.214     3 C    1.201     1 Co   0.636
     8   6 C    3.932 --    16 C    1.327     6 C    1.313     9 C    1.039
     9   6 C    3.986 --    15 C    1.377    10 C    1.377     8 C    1.039
    10   6 C    3.985 --    11 C    1.471     9 C    1.377    43 H    0.972
    11   6 C    3.989 --    10 C    1.471    12 C    1.352    44 H    0.972
    12   6 C    3.950 --    11 C    1.352    14 C    1.352    13 N    1.118
    13   7 N    3.135 --    12 C    1.118    46 H    0.933    45 H    0.933
    14   6 C    3.988 --    15 C    1.471    12 C    1.352    47 H    0.972
    15   6 C    3.985 --    14 C    1.471     9 C    1.377    48 H    0.972
    16   6 C    3.916 --     8 C    1.327    19 N    1.195    17 C    1.184
    17   6 C    3.959 --    18 C    1.633    16 C    1.184    49 H    0.973
    18   6 C    3.960 --    17 C    1.633    20 C    1.192    50 H    0.974
    19   7 N    3.345 --    20 C    1.229    16 C    1.195     1 Co   0.635
    20   6 C    3.905 --    21 C    1.259    19 N    1.229    18 C    1.192
    21   6 C    3.932 --    20 C    1.259    22 C    1.257   124 C    1.192
    22   6 C    3.905 --    21 C    1.257    26 N    1.230    23 C    1.193
    23   6 C    3.959 --    24 C    1.632    22 C    1.193    51 H    0.974
    24   6 C    3.959 --    23 C    1.632    25 C    1.185    52 H    0.973
    25   6 C    3.916 --    27 C    1.327    26 N    1.194    24 C    1.185
    26   7 N    3.346 --    22 C    1.230    25 C    1.194     1 Co   0.632
    27   6 C    3.932 --    25 C    1.327    35 C    1.314    28 C    1.038
    28   6 C    3.986 --    34 C    1.378    29 C    1.378    27 C    1.038
    29   6 C    3.986 --    30 C    1.471    28 C    1.378    53 H    0.972
    30   6 C    3.989 --    29 C    1.471    31 C    1.352    54 H    0.972
    31   6 C    3.950 --    30 C    1.352    33 C    1.352    32 N    1.118
    32   7 N    3.135 --    31 C    1.118    55 H    0.933    56 H    0.933
    33   6 C    3.988 --    34 C    1.471    31 C    1.352    57 H    0.972
    34   6 C    3.985 --    33 C    1.471    28 C    1.378    58 H    0.973
    35   6 C    3.919 --    27 C    1.314    39 N    1.215    36 C    1.179
    36   6 C    3.963 --    37 C    1.646    35 C    1.179    59 H    0.973
    37   6 C    3.958 --    36 C    1.646    38 C    1.176    60 H    0.975
    38   6 C    3.926 --     2 C    1.366    39 N    1.199    37 C    1.176
    39   7 N    3.344 --    35 C    1.215    38 C    1.199     1 Co   0.640
    40   1 H    1.000 --     2 C    0.970
    41   1 H    0.998 --     4 C    0.975
    42   1 H    1.005 --     5 C    0.973
    43   1 H    1.005 --    10 C    0.972
    44   1 H    0.998 --    11 C    0.972
    45   1 H    0.960 --    13 N    0.933
    46   1 H    0.960 --    13 N    0.933
    47   1 H    0.998 --    14 C    0.972
    48   1 H    1.006 --    15 C    0.972
    49   1 H    1.005 --    17 C    0.973
    50   1 H    1.001 --    18 C    0.974
    51   1 H    1.001 --    23 C    0.974
    52   1 H    1.005 --    24 C    0.973
    53   1 H    1.005 --    29 C    0.972
    54   1 H    0.998 --    30 C    0.972
    55   1 H    0.960 --    32 N    0.933
    56   1 H    0.960 --    32 N    0.933
    57   1 H    0.998 --    33 C    0.972
    58   1 H    1.005 --    34 C    0.973
    59   1 H    1.005 --    36 C    0.973
    60   1 H    0.998 --    37 C    0.975
    61  27 Co   3.065 --    99 N    0.642    67 N    0.637    79 N    0.636
                            86 N    0.632
    62   6 C    3.927 --    98 C    1.366    63 C    1.362   100 H    0.970
    63   6 C    3.926 --    62 C    1.362    67 N    1.200    64 C    1.178
    64   6 C    3.958 --    65 C    1.643    63 C    1.178   101 H    0.975
    65   6 C    3.963 --    64 C    1.643    66 C    1.180   102 H    0.973
    66   6 C    3.919 --    68 C    1.312    67 N    1.214    65 C    1.180
    67   7 N    3.345 --    66 C    1.214    63 C    1.200    61 Co   0.637
    68   6 C    3.932 --    76 C    1.326    66 C    1.312    69 C    1.040
    69   6 C    3.986 --    75 C    1.377    70 C    1.376    68 C    1.040
    70   6 C    3.985 --    71 C    1.471    69 C    1.376   103 H    0.972
    71   6 C    3.988 --    70 C    1.471    72 C    1.352   104 H    0.972
    72   6 C    3.950 --    74 C    1.352    71 C    1.352    73 N    1.118
    73   7 N    3.135 --    72 C    1.118   106 H    0.933   105 H    0.933
    74   6 C    3.988 --    75 C    1.471    72 C    1.352   107 H    0.972
    75   6 C    3.985 --    74 C    1.471    69 C    1.377   108 H    0.972
    76   6 C    3.916 --    68 C    1.326    79 N    1.195    77 C    1.184
    77   6 C    3.959 --    78 C    1.633    76 C    1.184   109 H    0.973
    78   6 C    3.960 --    77 C    1.633    80 C    1.193   110 H    0.974
    79   7 N    3.345 --    80 C    1.229    76 C    1.195    61 Co   0.636
    80   6 C    3.905 --    81 C    1.259    79 N    1.229    78 C    1.193
    81   6 C    3.932 --    80 C    1.259    82 C    1.256   126 C    1.193
    82   6 C    3.905 --    81 C    1.256    86 N    1.230    83 C    1.194
    83   6 C    3.959 --    84 C    1.632    82 C    1.194   111 H    0.974
    84   6 C    3.959 --    83 C    1.632    85 C    1.185   112 H    0.973
    85   6 C    3.916 --    87 C    1.326    86 N    1.194    84 C    1.185
    86   7 N    3.346 --    82 C    1.230    85 C    1.194    61 Co   0.632
    87   6 C    3.932 --    85 C    1.326    95 C    1.313    88 C    1.039
    88   6 C    3.986 --    94 C    1.377    89 C    1.377    87 C    1.039
    89   6 C    3.985 --    90 C    1.471    88 C    1.377   113 H    0.972
    90   6 C    3.989 --    89 C    1.471    91 C    1.352   114 H    0.972
    91   6 C    3.950 --    90 C    1.352    93 C    1.352    92 N    1.118
    92   7 N    3.135 --    91 C    1.118   115 H    0.933   116 H    0.933
    93   6 C    3.988 --    94 C    1.471    91 C    1.352   117 H    0.972
    94   6 C    3.985 --    93 C    1.471    88 C    1.377   118 H    0.972
    95   6 C    3.919 --    87 C    1.313    99 N    1.214    96 C    1.179
    96   6 C    3.963 --    97 C    1.645    95 C    1.179   119 H    0.973
    97   6 C    3.958 --    96 C    1.645    98 C    1.176   120 H    0.975
    98   6 C    3.926 --    62 C    1.366    99 N    1.198    97 C    1.176
    99   7 N    3.343 --    95 C    1.214    98 C    1.198    61 Co   0.642
   100   1 H    1.000 --    62 C    0.970
   101   1 H    0.998 --    64 C    0.975
   102   1 H    1.005 --    65 C    0.973
   103   1 H    1.006 --    70 C    0.972
   104   1 H    0.998 --    71 C    0.972
   105   1 H    0.960 --    73 N    0.933
   106   1 H    0.960 --    73 N    0.933
   107   1 H    0.998 --    74 C    0.972
   108   1 H    1.006 --    75 C    0.972
   109   1 H    1.005 --    77 C    0.973
   110   1 H    1.001 --    78 C    0.974
   111   1 H    1.001 --    83 C    0.974
   112   1 H    1.005 --    84 C    0.973
   113   1 H    1.006 --    89 C    0.972
   114   1 H    0.998 --    90 C    0.972
   115   1 H    0.960 --    92 N    0.933
   116   1 H    0.960 --    92 N    0.933
   117   1 H    0.998 --    93 C    0.972
   118   1 H    1.005 --    94 C    0.972
   119   1 H    1.005 --    96 C    0.973
   120   1 H    0.998 --    97 C    0.975
   121   6 C    3.920 --   122 C    2.361   125 C    1.339   124 C    0.189
   122   6 C    3.920 --   121 C    2.361   123 C    1.338   126 C    0.189
   123   6 C    3.930 --   124 C    2.443   122 C    1.338
   124   6 C    3.885 --   123 C    2.443    21 C    1.192   121 C    0.189
   125   6 C    3.930 --   126 C    2.443   121 C    1.339
   126   6 C    3.885 --   125 C    2.443    81 C    1.193   122 C    0.189
 ---------------------------------------------------------------------------

           -------------------------------------------------
          | TOTAL ENERGY             -215.883920522315 Eh   |
          | GRADIENT NORM               0.000272892838 Eh/α |
          | HOMO-LUMO GAP               0.008720458890 eV   |
           -------------------------------------------------

 * finished run on 2022/07/30 at 00:22:32.678
