   * xtb version 6.5.1 (b24c23e) compiled by 'conda@728c89f4b128' on 2022-07-12
          program call               : xtb Zn_Py_C4_4.xyz --gfn 1 --opt -T 48

   ID    Z sym.   atoms
    1   30 Zn     1, 55, 121, 174
    2    6 C      2-6, 8-11, 13-17, 19-24, 26-29, 31-36, 56-60, 62-65, 67-71,
                  73-78, 80-83, 85-90, 109-120, 122-126, 128-131, 133-137,
                  139-144, 146-149, 151-156, 175-179, 181-184, 186-190,
                  192-197, 199-202, 204-209
    3    7 N      7, 12, 18, 25, 30, 37, 61, 66, 72, 79, 84, 91, 127, 132,
                  138, 145, 150, 157, 180, 185, 191, 198, 203, 210
    4    1 H      38-54, 92-108, 158-173, 211-226

          :  Hamiltonian                  GFN1-xTB          :
 * total energy  :  -392.8816129 Eh     change       -0.3887027E-07 Eh
 * total energy  :  -393.3566901 Eh     change       -0.4750772E+00 Eh
 * total energy  :  -393.5472615 Eh     change       -0.1905714E+00 Eh
 * total energy  :  -393.6271206 Eh     change       -0.7985918E-01 Eh
 * total energy  :  -393.6919014 Eh     change       -0.6478079E-01 Eh
 * total energy  :  -393.7553381 Eh     change       -0.6343670E-01 Eh
 * total energy  :  -393.8002397 Eh     change       -0.4490161E-01 Eh
 * total energy  :  -393.8271173 Eh     change       -0.2687755E-01 Eh
 * total energy  :  -393.8482029 Eh     change       -0.2108559E-01 Eh
 * total energy  :  -393.8661010 Eh     change       -0.1789808E-01 Eh
 * total energy  :  -393.9753074 Eh     change       -0.1559930E-04 Eh
 * total energy  :  -393.9753237 Eh     change       -0.1625057E-04 Eh
 * total energy  :  -393.9753393 Eh     change       -0.1567103E-04 Eh
 * total energy  :  -393.9753493 Eh     change       -0.9986853E-05 Eh
 * total energy  :  -393.9753638 Eh     change       -0.1443648E-04 Eh
 * total energy  :  -393.9753703 Eh     change       -0.6579508E-05 Eh
 * total energy  :  -393.9753772 Eh     change       -0.6850281E-05 Eh
 * total energy  :  -393.9753823 Eh     change       -0.5080997E-05 Eh
 * total energy  :  -393.9753862 Eh     change       -0.3927705E-05 Eh
   *** GEOMETRY OPTIMIZATION CONVERGED AFTER 57 ITERATIONS ***

 final structure:
================
226
 xtb: 6.5.1 (b24c23e)
Zn          37.04825654059744       -0.02081972818317       -0.01926852581670
C           33.63971517199966       -0.05549067687986       -0.04585774074109
C           34.26960315063317       -1.28650580848253        0.09211250520604
C           33.59561929100910       -2.54460183151422        0.25343451564019
C           34.55449461268625       -3.49619973090053        0.37439894566461
C           35.82749707687061       -2.83134691028409        0.27990993556408
N           35.61911979508084       -1.49336063968836        0.11517000444307
C           37.07853159927854       -3.45242273140338        0.37857193735202
C           37.09084816716032       -4.92611507376772        0.54451157207523
C           37.62891011315389       -5.52438585901048        1.68357309225805
C           37.61630403907710       -6.90589279941417        1.79233773855847
N           37.11553969680331       -7.70230659683159        0.85315128577659
C           36.60266692235152       -7.14059547678637       -0.23690052264091
C           36.56531993922587       -5.76926926405474       -0.43408666520363
C           38.31799831766818       -2.80497795276360        0.33186458747161
C           39.59808183561992       -3.45552785368608        0.39052750812727
C           40.54385822037983       -2.48738958946646        0.28855076185715
N           38.51086612375447       -1.45745117285472        0.18505626538756
C           39.85278355900583       -1.23802330172384        0.15776181421341
C           40.48289452102014        0.01173312922918       -0.00321477016471
C           39.83014837153979        1.24960307387332       -0.16428726865641
C           40.49758065749009        2.50487045950106       -0.34877677632871
C           39.53402648357535        3.45466722313642       -0.45761157266681
C           38.26664827760129        2.78854179888839       -0.33373513141659
N           38.48437574914374        1.44733789264724       -0.16630129942175
C           37.01557939075581        3.41160326676014       -0.40354064159946
C           37.00302264140939        4.88669056403097       -0.55459950087740
C           36.43548199236734        5.49923136085777       -1.67146321806876
C           36.45054856660858        6.88190761466078       -1.76562436356336
N           36.98056139371659        7.66632273205988       -0.83257167764577
C           37.52187940869242        7.09101699618711        0.23656658629387
C           37.55902220764229        5.71767292781258        0.41786745619015
C           35.77556717561131        2.76419528095822       -0.34047846694206
C           34.49055475575337        3.41155029143054       -0.37432962857941
C           33.54955787155188        2.43936905837340       -0.27924349219448
C           34.24672992614843        1.18791210053353       -0.17523572860889
N           35.59208116416696        1.41866512541231       -0.21043914919491
H           32.55411109525237       -0.06501277734328       -0.04118632230165
H           32.52448887988755       -2.67063813841866        0.27704112533664
H           34.41723797508909       -4.55469749863904        0.52723530689293
H           38.03757405291841       -4.91472148072803        2.48069829745278
H           38.02583413261326       -7.39394269729886        2.67202874464641
H           36.20387670527004       -7.81683686316403       -0.98752723476784
H           36.14802429372169       -5.35703321177475       -1.34518475008039
H           39.75194790001147       -4.51847583291226        0.48383589259223
H           41.61613547764673       -2.60202720050605        0.29287400776552
H           41.56725947748808        2.63428363622925       -0.39363313663953
H           39.66755916856362        4.51186178526575       -0.62119793682456
H           36.00311102873294        4.90013055522279       -2.46407785989249
H           36.01862559283254        7.38073995508618       -2.62838928060102
H           37.94478035305112        7.75767831661256        0.98255128798024
H           38.00051895794667        5.29388569578529        1.31208823605454
H           34.33322815350814        4.47562355477681       -0.44918471508897
H           32.47636339739941        2.54868145155935       -0.27151170435900
Zn          77.49818013240922        0.03997402083363       -0.02041578843917
C           80.90659311932662        0.05511129951165       -0.06992045691145
C           80.27936568372782        1.27306495288874       -0.30323368758604
C           80.95616940785824        2.52058037423737       -0.52386410582570
C           79.99944217986696        3.46650343357112       -0.69584959920528
C           78.72501575683293        2.80584257136293       -0.59219111151033
N           78.93033275898256        1.47986623428629       -0.34606269308911
C           77.47505029390022        3.42788998543818       -0.69791721688669
C           77.46405152853974        4.88370659179357       -0.98002680793049
C           76.91141084726733        5.79160205506756       -0.07689607049558
C           76.92528386241764        7.14328116708475       -0.38195898765137
N           77.44059810212522        7.62669973384262       -1.50800459631924
C           77.96702917754158        6.76829326110639       -2.37561442804093
C           78.00440222646752        5.40009775168338       -2.15726992012630
C           76.23419297371356        2.79622380552563       -0.55985341145113
C           74.95579267978492        3.43183714619564       -0.72362784099874
C           74.00794481030363        2.48047422908355       -0.52645638140638
N           76.03851302061318        1.47056701463576       -0.27923969399644
C           74.69628215445429        1.25428221930081       -0.24726447336440
C           74.06367315707179        0.02329702692779        0.01695640503068
C           74.71412959661370       -1.19978342714373        0.27353225777798
C           74.04349216256652       -2.44498604188828        0.50764871393267
C           75.00491773994979       -3.38641649810170        0.68581696489444
C           76.27434865401682       -2.72271656838990        0.57066252489182
N           76.05955838482997       -1.39505721187848        0.31367843407806
C           77.52403897574501       -3.34462354462947        0.66874333460775
C           77.53477279666662       -4.79781975114658        0.96399026886390
C           78.07833292253368       -5.71639834760906        0.06641548155296
C           78.06132977451665       -7.06512368712508        0.38488922106243
N           77.55137120219962       -7.53575005202453        1.51858952882524
C           77.03366963290736       -6.66699403787603        2.38129977989166
C           77.00054766424448       -5.30102412924921        2.14994874559848
C           78.76496992926860       -2.71519063218023        0.51140840013478
C           80.04892093399563       -3.34903905841062        0.65682112613051
C           80.99184210074614       -2.39689530478353        0.44708463273257
C           80.29703871313224       -1.16848791477029        0.18011625263577
N           78.95116986302310       -1.39356354002157        0.22931147525928
H           81.99222051062047        0.06239570797660       -0.07272109373427
H           82.02755740784315        2.64605108250695       -0.53595362177762
H           80.13912432418259        4.52197641863521       -0.86634154042686
H           76.49042673971370        5.44433457463234        0.85922660204733
H           76.50480937378325        7.86911015738111        0.30807826532482
H           78.37708638393958        7.19267091577307       -3.28748354722894
H           78.43290545810859        4.73746176414911       -2.89986320730202
H           74.80462194484365        4.47011828378711       -0.97133148562534
H           72.93604959962823        2.59060018325895       -0.56960153561231
H           72.97318117311042       -2.57586118588246        0.52409996909230
H           74.86804836553301       -4.44055780564774        0.86547344793640
H           78.49355627194483       -5.38064812685817       -0.87645759109509
H           78.47445183989599       -7.79908527736926       -0.30095137653697
H           76.62702642933496       -7.08108033415903        3.29940914464575
H           76.57886316419943       -4.62945814561240        2.88838921035579
H           80.20427118906733       -4.38765342390509        0.90129624455047
H           82.06495748028539       -2.50356535089819        0.47531030597041
C           43.11171739461389        0.02668784913469       -0.02167431589196
C           41.89000319559708        0.02166887395474       -0.01384029285174
C           44.46218245753428        0.03036181229395       -0.03017931243531
C           45.68407113602450        0.02916862694952       -0.03705265135069
C           56.59931128462608        0.01724534249831       -0.02866316181579
C           55.37672613735693        0.01904203502372       -0.03045474236747
C           57.94841468222265        0.01273922735515       -0.02735344838919
C           59.17100578775777        0.00637744139696       -0.02701198675351
C           70.08501698540832        0.00155472521331        0.00194003765810
C           68.86300256248087        0.00231140547982       -0.00249894166267
C           71.43510202889983        0.00690731565921        0.00977670461364
C           72.65700526428913        0.01356719687538        0.01299381596325
Zn          50.53028030459981        0.02009009445557       -0.04010848923754
C           47.09072678968969        0.02568704662261       -0.03996305065331
C           47.73208651418147       -0.88599534353812        0.82194882198824
C           47.05277182629268       -1.77906575009362        1.71349365341730
C           48.00761959511040       -2.47997328160749        2.37699786166980
C           49.28019982346418       -2.02687982354103        1.88907301684616
N           49.07594376149588       -1.05265171451377        0.94933312474269
C           50.52608387453331       -2.48733632977058        2.32894013118830
C           50.52461985913131       -3.56126765908645        3.35228395186921
C           49.97913988266811       -4.81669676513216        3.08645865740406
C           50.00366102306680       -5.78762234458588        4.07515638907914
N           50.52202675077042       -5.58048622055239        5.28147418399775
C           51.04177463739077       -4.38564707058342        5.54411436066595
C           51.06882196515225       -3.35382464624917        4.61927076625716
C           51.77330159364993       -2.02627158371601        1.89433608026593
C           53.04389085582570       -2.54320961458485        2.31989979743893
C           54.00152389870342       -1.84329597044555        1.65921451526286
N           51.98177124253890       -1.03277093381495        0.97539416392363
C           53.32583312028690       -0.89925911491598        0.81908917070531
C           53.97174359574882        0.01984203598465       -0.03274199583326
C           53.32909162292869        0.93808987930488       -0.88791500903664
C           54.00782713334655        1.88112364251799       -1.72660405202186
C           53.05271096142907        2.57783083155858       -2.39430218677918
C           51.78054693810754        2.06027581038156       -1.97413270795940
N           51.98558833127342        1.06999009121771       -1.05102378179484
C           50.53502142470736        2.51825970763914       -2.41731518143902
C           50.53944001983297        3.58203807827061       -3.45108229298152
C           51.09590644610514        3.36146877513546       -4.71066928931596
C           51.07624471917863        4.38268016383075       -5.64724810115012
N           50.55201476008133        5.57949951295981       -5.40296075440257
C           50.02171694811544        5.79909072680763       -4.20410865836753
C           49.98944093964447        4.83938483377213       -3.20462672004624
C           49.28728976386525        2.06206101335401       -1.97810119517862
C           48.01622220921558        2.51485884820652       -2.47027827848686
C           47.05897342281671        1.82175034491711       -1.80201142448745
C           47.73522706645701        0.93232088865774       -0.90461446564697
N           49.07967846554969        1.09425727580875       -1.03229723845425
H           45.98188534050337       -1.84992991343616        1.81879625818971
H           47.86416155176522       -3.22966956642863        3.13829445833676
H           49.55573840806980       -5.03456361457291        2.11315305888326
H           49.58923706427873       -6.77434569632011        3.88986478518409
H           51.45520356990336       -4.24589549372043        6.53872158060386
H           51.49330168156944       -2.39203964800053        4.88173439887896
H           53.18392004577225       -3.34701044307894        3.02452661982217
H           55.07203481590644       -1.95555549756630        1.72497925534230
H           55.07850518232496        1.99489774165934       -1.78684892469017
H           53.19542906246845        3.38047541539311       -3.09969221566642
H           51.52442009177590        2.39747118365947       -4.95804612188320
H           51.49970837442628        4.23259075582565       -6.63610816447402
H           49.60390675485893        6.78710055563539       -4.03389774613298
H           49.55691724995645        5.06799743534544       -2.23782701633786
H           47.87512089656072        3.25912553092302       -3.23732456291006
H           45.98831192065412        1.89470590116509       -1.90830272702874
Zn          64.01649173936065       -0.00370953935569       -0.02375637733479
C           60.57595494716430        0.00166555707042       -0.02716804803218
C           61.21780526112568       -0.89248696594984        0.85380001636651
C           60.53855213415179       -1.76770986333024        1.76265384589303
C           61.49302342835007       -2.46945456829805        2.42602616238057
C           62.76517177937650       -2.03467493426217        1.92071947655676
N           62.56095004977190       -1.06751661278625        0.97312835995429
C           64.01029862042763       -2.50942111040623        2.34685805223636
C           64.00715241953874       -3.58292485752716        3.37043610365847
C           63.43557340946182       -4.82861487148732        3.11347494052758
C           63.45663638209817       -5.79927626001014        4.10246773352962
N           63.99583900531950       -5.60084787166053        5.30111159349785
C           64.54141248246965       -4.41566552831612        5.55502999650440
C           64.57392800284821       -3.38500399432696        4.62907881856291
C           65.25803928501369       -2.06252086079924        1.89817384442950
C           66.52767568157329       -2.59406489362569        2.30831815795030
C           67.48577523345209       -1.89483993112180        1.64754375839766
N           65.46691272724975       -1.06388240193897        0.98545853191042
C           66.81114319192517       -0.93686396282094        0.82241425312888
C           67.45691557294111       -0.00140610292318       -0.01040536614725
C           66.81583494782134        0.93119886501614       -0.85013838736515
C           67.49497242180477        1.88841875949313       -1.67238675641813
C           66.54076710265626        2.58321795638756       -2.34340421314496
C           65.26897756580674        2.05056956192021       -1.94146729006487
N           65.47262846367744        1.05485536157357       -1.02443003876025
C           64.02392405002455        2.49603477420194       -2.39904987032496
C           64.02756355110338        3.56572351731911       -3.42660202320068
C           64.60233570847303        3.36239374950018       -4.68077937284284
C           64.57724001182815        4.38962174548567       -5.61075700555056
N           64.03158292438010        5.57641552364722       -5.36475357408187
C           63.48469977869486        5.77986592425043       -4.17052936961649
C           63.45577942591816        4.81296979027592       -3.17801867214217
C           62.77626737001366        2.02484930627160       -1.97648714700562
C           61.50668575140758        2.46209685790007       -2.48599456479088
C           60.54843324274461        1.76646494009097       -1.82163461566219
C           61.22281211460919        0.89154148221104       -0.90887773062958
N           62.56677922831104        1.06123534084959       -1.02632959490829
H           59.46803114759330       -1.82762711365880        1.87808670474849
H           61.34981177233708       -3.20830333321876        3.19789089492649
H           62.99433826341449       -5.03919127027505        2.14649492090633
H           63.02140224490351       -6.77824559620749        3.92394595065446
H           64.97153061302720       -4.28305372981094        6.54354632207999
H           65.01954212175714       -2.43096888989869        4.88470212483430
H           66.66687605942938       -3.40589607824005        3.00386640415169
H           68.55589852476420       -2.01538512484959        1.70454617915395
H           68.56523966542480        2.01126140829111       -1.72118544645343
H           66.68380954978028        3.39313054069299       -3.04040345122603
H           65.04861423689127        2.40687931598987       -4.92966255003561
H           65.01427072885971        4.25305483794764       -6.59570144108118
H           63.04946313565924        6.76010191155666       -3.99840125502914
H           63.00851813560327        5.02787568991705       -2.21476887961661
H           61.36744924339051        3.19862472689442       -3.26079464421707
H           59.47835358438125        1.82999917606874       -1.93915267270907

          :  Hamiltonian                  GFN1-xTB          :
         :: total energy            -393.975386211626 Eh    ::
         :: gradient norm              0.000585415237 Eh/a0 ::
         :: HOMO-LUMO gap              0.875569136251 eV    ::
         :: SCC energy              -400.349178741736 Eh    ::
         :: repulsion energy           6.582420935567 Eh    ::

    * Orbital Energies and Occupations

         #    Occupation            Energy/Eh            Energy/eV
      -------------------------------------------------------------
         1        2.0000           -0.7662602             -20.8510
       ...           ...                  ...                  ...
       349        2.0000           -0.4187931             -11.3959
       350        2.0000           -0.4186953             -11.3933
       351        2.0000           -0.4186739             -11.3927
       352        2.0000           -0.4186565             -11.3922
       353        2.0000           -0.4183753             -11.3846
       354        2.0000           -0.3995967             -10.8736
       355        2.0000           -0.3995933             -10.8735
       356        2.0000           -0.3985288             -10.8445
       357        2.0000           -0.3985032             -10.8438
       358        2.0000           -0.3955375             -10.7631
       359        2.0000           -0.3902294             -10.6187
       360        2.0000           -0.3847474             -10.4695
       361        2.0000           -0.3786655             -10.3040 (HOMO)
       362                         -0.3464889              -9.4284 (LUMO)
       363                         -0.3390000              -9.2247
       364                         -0.3330174              -9.0619
       365                         -0.3329962              -9.0613
       366                         -0.3325331              -9.0487
       367                         -0.3322808              -9.0418
       368                         -0.3322579              -9.0412
       369                         -0.3272385              -8.9046
       370                         -0.3082999              -8.3893
       371                         -0.3017621              -8.2114
       372                         -0.2985071              -8.1228
       ...                                ...                  ...
       772                          1.5146811              41.2166
      -------------------------------------------------------------
                  HL-Gap            0.0321766 Eh            0.8756 eV

Wiberg/Mayer (AO) data.
largest (>0.10) Wiberg bond orders for each atom

     #   Z sym  total        # sym  WBO       # sym  WBO       # sym  WBO
 ---------------------------------------------------------------------------
     1  30 Zn   1.996 --     7 N    0.460    37 N    0.460    25 N    0.456
                            18 N    0.455
     2   6 C    3.929 --     3 C    1.358    36 C    1.358    38 H    0.971
     3   6 C    3.921 --     2 C    1.358     7 N    1.233     4 C    1.170
     4   6 C    3.960 --     5 C    1.660     3 C    1.170    39 H    0.976
     5   6 C    3.963 --     4 C    1.660     6 C    1.171    40 H    0.973
     6   6 C    3.919 --     8 C    1.314     7 N    1.245     5 C    1.171
     7   7 N    3.294 --     6 C    1.245     3 C    1.233     1 Zn   0.460
     8   6 C    3.934 --    15 C    1.322     6 C    1.314     9 C    1.029
     9   6 C    3.985 --    14 C    1.392    10 C    1.392     8 C    1.029
                            12 N    0.107
    10   6 C    3.987 --    11 C    1.443     9 C    1.392    41 H    0.973
                            13 C    0.108
    11   6 C    3.972 --    10 C    1.443    12 N    1.415    42 H    0.972
                            14 C    0.108
    12   7 N    3.029 --    13 C    1.415    11 C    1.415     9 C    0.107
    13   6 C    3.972 --    14 C    1.442    12 N    1.415    43 H    0.972
                            10 C    0.108
    14   6 C    3.987 --    13 C    1.442     9 C    1.392    44 H    0.973
                            11 C    0.108
    15   6 C    3.914 --     8 C    1.322    18 N    1.227    16 C    1.178
    16   6 C    3.960 --    17 C    1.648    15 C    1.178    45 H    0.973
    17   6 C    3.962 --    16 C    1.648    19 C    1.185    46 H    0.974
    18   7 N    3.297 --    19 C    1.262    15 C    1.227     1 Zn   0.455
    19   6 C    3.903 --    18 N    1.262    20 C    1.257    17 C    1.185
    20   6 C    3.939 --    21 C    1.258    19 C    1.257   110 C    1.184
    21   6 C    3.903 --    25 N    1.261    20 C    1.258    22 C    1.185
    22   6 C    3.962 --    23 C    1.647    21 C    1.185    47 H    0.974
    23   6 C    3.960 --    22 C    1.647    24 C    1.178    48 H    0.973
    24   6 C    3.914 --    26 C    1.322    25 N    1.227    23 C    1.178
    25   7 N    3.297 --    21 C    1.261    24 C    1.227     1 Zn   0.456
    26   6 C    3.934 --    24 C    1.322    33 C    1.314    27 C    1.030
    27   6 C    3.985 --    28 C    1.392    32 C    1.391    26 C    1.030
                            30 N    0.107
    28   6 C    3.987 --    29 C    1.442    27 C    1.392    49 H    0.973
                            31 C    0.108
    29   6 C    3.972 --    28 C    1.442    30 N    1.415    50 H    0.972
                            32 C    0.108
    30   7 N    3.029 --    29 C    1.415    31 C    1.415    27 C    0.107
    31   6 C    3.972 --    32 C    1.443    30 N    1.415    51 H    0.972
                            28 C    0.108
    32   6 C    3.987 --    31 C    1.443    27 C    1.391    52 H    0.973
                            29 C    0.108
    33   6 C    3.919 --    26 C    1.314    37 N    1.245    34 C    1.171
    34   6 C    3.963 --    35 C    1.660    33 C    1.171    53 H    0.973
    35   6 C    3.960 --    34 C    1.660    36 C    1.170    54 H    0.976
    36   6 C    3.921 --     2 C    1.358    37 N    1.233    35 C    1.170
    37   7 N    3.294 --    33 C    1.245    36 C    1.233     1 Zn   0.460
    38   1 H    1.001 --     2 C    0.971
    39   1 H    0.998 --     4 C    0.976
    40   1 H    1.004 --     5 C    0.973
    41   1 H    1.004 --    10 C    0.973
    42   1 H    1.013 --    11 C    0.972
    43   1 H    1.013 --    13 C    0.972
    44   1 H    1.004 --    14 C    0.973
    45   1 H    1.005 --    16 C    0.973
    46   1 H    1.002 --    17 C    0.974
    47   1 H    1.002 --    22 C    0.974
    48   1 H    1.004 --    23 C    0.973
    49   1 H    1.004 --    28 C    0.973
    50   1 H    1.013 --    29 C    0.972
    51   1 H    1.013 --    31 C    0.972
    52   1 H    1.004 --    32 C    0.973
    53   1 H    1.005 --    34 C    0.973
    54   1 H    0.998 --    35 C    0.976
    55  30 Zn   1.996 --    91 N    0.460    61 N    0.460    79 N    0.456
                            72 N    0.455
    56   6 C    3.928 --    90 C    1.358    57 C    1.358    92 H    0.971
    57   6 C    3.921 --    56 C    1.358    61 N    1.233    58 C    1.170
    58   6 C    3.960 --    59 C    1.660    57 C    1.170    93 H    0.976
    59   6 C    3.963 --    58 C    1.660    60 C    1.171    94 H    0.973
    60   6 C    3.919 --    62 C    1.314    61 N    1.245    59 C    1.171
    61   7 N    3.294 --    60 C    1.245    57 C    1.233    55 Zn   0.460
    62   6 C    3.933 --    69 C    1.322    60 C    1.314    63 C    1.029
    63   6 C    3.985 --    68 C    1.392    64 C    1.392    62 C    1.029
                            66 N    0.107
    64   6 C    3.987 --    65 C    1.443    63 C    1.392    95 H    0.973
                            67 C    0.108
    65   6 C    3.972 --    64 C    1.443    66 N    1.415    96 H    0.972
                            68 C    0.108
    66   7 N    3.029 --    67 C    1.415    65 C    1.415    63 C    0.107
    67   6 C    3.972 --    68 C    1.442    66 N    1.415    97 H    0.972
                            64 C    0.108
    68   6 C    3.987 --    67 C    1.442    63 C    1.392    98 H    0.973
                            65 C    0.108
    69   6 C    3.913 --    62 C    1.322    72 N    1.227    70 C    1.178
    70   6 C    3.960 --    71 C    1.647    69 C    1.178    99 H    0.973
    71   6 C    3.962 --    70 C    1.647    73 C    1.185   100 H    0.974
    72   7 N    3.297 --    73 C    1.262    69 C    1.227    55 Zn   0.455
    73   6 C    3.903 --    72 N    1.262    74 C    1.256    71 C    1.185
    74   6 C    3.939 --    75 C    1.257    73 C    1.256   120 C    1.186
    75   6 C    3.903 --    79 N    1.261    74 C    1.257    76 C    1.185
    76   6 C    3.962 --    77 C    1.647    75 C    1.185   101 H    0.974
    77   6 C    3.960 --    76 C    1.647    78 C    1.178   102 H    0.973
    78   6 C    3.913 --    80 C    1.322    79 N    1.227    77 C    1.178
    79   7 N    3.297 --    75 C    1.261    78 C    1.227    55 Zn   0.456
    80   6 C    3.933 --    78 C    1.322    87 C    1.313    81 C    1.029
    81   6 C    3.985 --    82 C    1.392    86 C    1.392    80 C    1.029
                            84 N    0.107
    82   6 C    3.987 --    83 C    1.442    81 C    1.392   103 H    0.973
                            85 C    0.108
    83   6 C    3.972 --    82 C    1.442    84 N    1.415   104 H    0.972
                            86 C    0.108
    84   7 N    3.029 --    83 C    1.415    85 C    1.415    81 C    0.107
    85   6 C    3.972 --    86 C    1.443    84 N    1.415   105 H    0.972
                            82 C    0.108
    86   6 C    3.987 --    85 C    1.443    81 C    1.392   106 H    0.973
                            83 C    0.108
    87   6 C    3.919 --    80 C    1.313    91 N    1.245    88 C    1.171
    88   6 C    3.963 --    89 C    1.660    87 C    1.171   107 H    0.973
    89   6 C    3.960 --    88 C    1.660    90 C    1.170   108 H    0.976
    90   6 C    3.921 --    56 C    1.358    91 N    1.233    89 C    1.170
    91   7 N    3.294 --    87 C    1.245    90 C    1.233    55 Zn   0.460
    92   1 H    1.001 --    56 C    0.971
    93   1 H    0.998 --    58 C    0.976
    94   1 H    1.005 --    59 C    0.973
    95   1 H    1.004 --    64 C    0.973
    96   1 H    1.013 --    65 C    0.972
    97   1 H    1.013 --    67 C    0.972
    98   1 H    1.004 --    68 C    0.973
    99   1 H    1.004 --    70 C    0.973
   100   1 H    1.002 --    71 C    0.974
   101   1 H    1.002 --    76 C    0.974
   102   1 H    1.005 --    77 C    0.973
   103   1 H    1.004 --    82 C    0.973
   104   1 H    1.013 --    83 C    0.972
   105   1 H    1.013 --    85 C    0.972
   106   1 H    1.004 --    86 C    0.973
   107   1 H    1.005 --    88 C    0.973
   108   1 H    0.998 --    89 C    0.976
   109   6 C    3.934 --   110 C    2.480   111 C    1.304
   110   6 C    3.922 --   109 C    2.480    20 C    1.184   112 C    0.198
   111   6 C    3.931 --   112 C    2.478   109 C    1.304
   112   6 C    3.923 --   111 C    2.478   122 C    1.186   110 C    0.198
   113   6 C    3.932 --   114 C    2.470   115 C    1.312
   114   6 C    3.924 --   113 C    2.470   140 C    1.194   116 C    0.199
   115   6 C    3.931 --   116 C    2.470   113 C    1.312
   116   6 C    3.924 --   115 C    2.470   175 C    1.194   114 C    0.199
   117   6 C    3.931 --   118 C    2.476   119 C    1.306
   118   6 C    3.924 --   117 C    2.476   193 C    1.188   120 C    0.198
   119   6 C    3.934 --   120 C    2.478   117 C    1.306
   120   6 C    3.922 --   119 C    2.478    74 C    1.186   118 C    0.198
   121  30 Zn   1.993 --   157 N    0.456   145 N    0.456   127 N    0.456
                           138 N    0.456
   122   6 C    3.927 --   156 C    1.255   123 C    1.255   112 C    1.186
   123   6 C    3.904 --   127 N    1.261   122 C    1.255   124 C    1.187
   124   6 C    3.960 --   125 C    1.644   123 C    1.187   158 H    0.974
   125   6 C    3.961 --   124 C    1.644   126 C    1.181   159 H    0.973
   126   6 C    3.911 --   128 C    1.318   127 N    1.226   125 C    1.181
   127   7 N    3.291 --   123 C    1.261   126 C    1.226   121 Zn   0.456
   128   6 C    3.929 --   135 C    1.320   126 C    1.318   129 C    1.028
   129   6 C    3.985 --   130 C    1.393   134 C    1.392   128 C    1.028
                           132 N    0.107
   130   6 C    3.987 --   131 C    1.442   129 C    1.393   160 H    0.973
                           133 C    0.108
   131   6 C    3.972 --   130 C    1.442   132 N    1.415   161 H    0.972
                           134 C    0.108
   132   7 N    3.030 --   131 C    1.415   133 C    1.415   129 C    0.107
   133   6 C    3.972 --   134 C    1.442   132 N    1.415   162 H    0.972
                           130 C    0.108
   134   6 C    3.987 --   133 C    1.442   129 C    1.392   163 H    0.973
                           131 C    0.108
   135   6 C    3.911 --   128 C    1.320   138 N    1.225   136 C    1.181
   136   6 C    3.960 --   137 C    1.644   135 C    1.181   164 H    0.973
   137   6 C    3.960 --   136 C    1.644   139 C    1.188   165 H    0.974
   138   7 N    3.291 --   139 C    1.264   135 C    1.225   121 Zn   0.456
   139   6 C    3.902 --   138 N    1.264   140 C    1.251   137 C    1.188
   140   6 C    3.927 --   141 C    1.251   139 C    1.251   114 C    1.194
   141   6 C    3.902 --   145 N    1.263   140 C    1.251   142 C    1.188
   142   6 C    3.960 --   143 C    1.644   141 C    1.188   166 H    0.974
   143   6 C    3.960 --   142 C    1.644   144 C    1.181   167 H    0.973
   144   6 C    3.911 --   146 C    1.319   145 N    1.225   143 C    1.181
   145   7 N    3.292 --   141 C    1.263   144 C    1.225   121 Zn   0.456
   146   6 C    3.929 --   144 C    1.319   153 C    1.318   147 C    1.028
   147   6 C    3.985 --   152 C    1.393   148 C    1.392   146 C    1.028
                           150 N    0.107
   148   6 C    3.987 --   149 C    1.443   147 C    1.392   168 H    0.973
                           151 C    0.108
   149   6 C    3.972 --   148 C    1.443   150 N    1.415   169 H    0.972
                           152 C    0.108
   150   7 N    3.029 --   151 C    1.416   149 C    1.415   147 C    0.107
   151   6 C    3.972 --   152 C    1.442   150 N    1.416   170 H    0.972
                           148 C    0.108
   152   6 C    3.987 --   151 C    1.442   147 C    1.393   171 H    0.973
                           149 C    0.108
   153   6 C    3.911 --   146 C    1.318   157 N    1.226   154 C    1.181
   154   6 C    3.961 --   155 C    1.644   153 C    1.181   172 H    0.973
   155   6 C    3.960 --   154 C    1.644   156 C    1.187   173 H    0.974
   156   6 C    3.904 --   157 N    1.261   122 C    1.255   155 C    1.187
   157   7 N    3.291 --   156 C    1.261   153 C    1.226   121 Zn   0.456
   158   1 H    1.002 --   124 C    0.974
   159   1 H    1.004 --   125 C    0.973
   160   1 H    1.004 --   130 C    0.973
   161   1 H    1.013 --   131 C    0.972
   162   1 H    1.013 --   133 C    0.972
   163   1 H    1.004 --   134 C    0.973
   164   1 H    1.004 --   136 C    0.973
   165   1 H    1.002 --   137 C    0.974
   166   1 H    1.002 --   142 C    0.974
   167   1 H    1.004 --   143 C    0.973
   168   1 H    1.004 --   148 C    0.973
   169   1 H    1.013 --   149 C    0.972
   170   1 H    1.013 --   151 C    0.972
   171   1 H    1.004 --   152 C    0.973
   172   1 H    1.004 --   154 C    0.973
   173   1 H    1.002 --   155 C    0.974
   174  30 Zn   1.993 --   210 N    0.456   198 N    0.456   180 N    0.456
                           191 N    0.456
   175   6 C    3.927 --   176 C    1.251   209 C    1.251   116 C    1.194
   176   6 C    3.902 --   180 N    1.264   175 C    1.251   177 C    1.188
   177   6 C    3.960 --   178 C    1.644   176 C    1.188   211 H    0.974
   178   6 C    3.960 --   177 C    1.644   179 C    1.181   212 H    0.973
   179   6 C    3.911 --   181 C    1.320   180 N    1.225   178 C    1.181
   180   7 N    3.291 --   176 C    1.264   179 C    1.225   174 Zn   0.456
   181   6 C    3.928 --   179 C    1.320   188 C    1.318   182 C    1.028
   182   6 C    3.985 --   183 C    1.392   187 C    1.392   181 C    1.028
                           185 N    0.107
   183   6 C    3.987 --   184 C    1.442   182 C    1.392   213 H    0.973
                           186 C    0.108
   184   6 C    3.972 --   183 C    1.442   185 N    1.415   214 H    0.972
                           187 C    0.108
   185   7 N    3.029 --   186 C    1.415   184 C    1.415   182 C    0.107
   186   6 C    3.972 --   187 C    1.442   185 N    1.415   215 H    0.972
                           183 C    0.108
   187   6 C    3.987 --   186 C    1.442   182 C    1.392   216 H    0.973
                           184 C    0.108
   188   6 C    3.911 --   181 C    1.318   191 N    1.226   189 C    1.181
   189   6 C    3.960 --   190 C    1.644   188 C    1.181   217 H    0.973
   190   6 C    3.960 --   189 C    1.644   192 C    1.187   218 H    0.974
   191   7 N    3.291 --   192 C    1.262   188 C    1.226   174 Zn   0.456
   192   6 C    3.903 --   191 N    1.262   193 C    1.254   190 C    1.187
   193   6 C    3.926 --   194 C    1.254   192 C    1.254   118 C    1.188
   194   6 C    3.903 --   198 N    1.262   193 C    1.254   195 C    1.188
   195   6 C    3.960 --   196 C    1.644   194 C    1.188   219 H    0.974
   196   6 C    3.960 --   195 C    1.644   197 C    1.181   220 H    0.973
   197   6 C    3.911 --   199 C    1.318   198 N    1.226   196 C    1.181
   198   7 N    3.291 --   194 C    1.262   197 C    1.226   174 Zn   0.456
   199   6 C    3.928 --   206 C    1.320   197 C    1.318   200 C    1.028
   200   6 C    3.985 --   205 C    1.392   201 C    1.392   199 C    1.028
                           203 N    0.107
   201   6 C    3.987 --   202 C    1.442   200 C    1.392   221 H    0.973
                           204 C    0.108
   202   6 C    3.972 --   201 C    1.442   203 N    1.415   222 H    0.972
                           205 C    0.108
   203   7 N    3.029 --   204 C    1.415   202 C    1.415   200 C    0.107
   204   6 C    3.972 --   205 C    1.442   203 N    1.415   223 H    0.972
                           201 C    0.108
   205   6 C    3.987 --   204 C    1.442   200 C    1.392   224 H    0.973
                           202 C    0.108
   206   6 C    3.911 --   199 C    1.320   210 N    1.224   207 C    1.181
   207   6 C    3.960 --   208 C    1.643   206 C    1.181   225 H    0.973
   208   6 C    3.960 --   207 C    1.643   209 C    1.188   226 H    0.974
   209   6 C    3.902 --   210 N    1.264   175 C    1.251   208 C    1.188
   210   7 N    3.291 --   209 C    1.264   206 C    1.224   174 Zn   0.456
   211   1 H    1.002 --   177 C    0.974
   212   1 H    1.004 --   178 C    0.973
   213   1 H    1.004 --   183 C    0.973
   214   1 H    1.013 --   184 C    0.972
   215   1 H    1.013 --   186 C    0.972
   216   1 H    1.004 --   187 C    0.973
   217   1 H    1.004 --   189 C    0.973
   218   1 H    1.002 --   190 C    0.974
   219   1 H    1.002 --   195 C    0.974
   220   1 H    1.004 --   196 C    0.973
   221   1 H    1.004 --   201 C    0.973
   222   1 H    1.013 --   202 C    0.972
   223   1 H    1.013 --   204 C    0.972
   224   1 H    1.004 --   205 C    0.973
   225   1 H    1.004 --   207 C    0.973
   226   1 H    1.002 --   208 C    0.974
 ---------------------------------------------------------------------------

           -------------------------------------------------
          | TOTAL ENERGY             -393.975386211626 Eh   |
          | GRADIENT NORM               0.000585415237 Eh/α |
          | HOMO-LUMO GAP               0.875569136251 eV   |
           -------------------------------------------------

 * finished run on 2022/07/30 at 07:20:45.099
