   * xtb version 6.5.1 (b24c23e) compiled by 'conda@728c89f4b128' on 2022-07-12
          program call               : xtb Zn_Ph2OMe_C4_3.xyz --gfn 1 --opt -T 48

   ID    Z sym.   atoms
    1   30 Zn     1, 73, 153
    2    6 C      2-6, 8-11, 13-21, 23-27, 29-33, 36, 37, 39-43, 45, 74-78,
                  80-83, 85-93, 95-99, 101-105, 108, 109, 111-115, 117,
                  145-152, 154-158, 160-163, 165-173, 175-179, 181-185, 188,
                  189, 191-195, 197
    3    7 N      7, 12, 34, 35, 79, 84, 106, 107, 159, 164, 186, 187
    4    8 O      22, 28, 38, 44, 94, 100, 110, 116, 174, 180, 190, 196
    5    1 H      46-72, 118-144, 198-223

          :  Hamiltonian                  GFN1-xTB          :
 * total energy  :  -384.4903162 Eh     change        0.2971154E-07 Eh
 * total energy  :  -384.7142584 Eh     change       -0.2239423E+00 Eh
 * total energy  :  -384.7948559 Eh     change       -0.8059751E-01 Eh
 * total energy  :  -384.8425571 Eh     change       -0.4770117E-01 Eh
 * total energy  :  -384.8670932 Eh     change       -0.2453607E-01 Eh
 * total energy  :  -384.8876857 Eh     change       -0.2059249E-01 Eh
 * total energy  :  -384.9087979 Eh     change       -0.2111225E-01 Eh
 * total energy  :  -384.9354469 Eh     change       -0.2664896E-01 Eh
 * total energy  :  -384.9638402 Eh     change       -0.2839327E-01 Eh
 * total energy  :  -384.9864532 Eh     change       -0.2261300E-01 Eh
 * total energy  :  -385.3055544 Eh     change       -0.8671163E-05 Eh
 * total energy  :  -385.3055643 Eh     change       -0.9955971E-05 Eh
 * total energy  :  -385.3055742 Eh     change       -0.9880324E-05 Eh
 * total energy  :  -385.3055827 Eh     change       -0.8470322E-05 Eh
 * total energy  :  -385.3055903 Eh     change       -0.7583791E-05 Eh
 * total energy  :  -385.3055983 Eh     change       -0.8086200E-05 Eh
 * total energy  :  -385.3056078 Eh     change       -0.9427991E-05 Eh
 * total energy  :  -385.3056172 Eh     change       -0.9412041E-05 Eh
 * total energy  :  -385.3056196 Eh     change       -0.2361297E-05 Eh
   *** GEOMETRY OPTIMIZATION CONVERGED AFTER 122 ITERATIONS ***

 final structure:
================
223
 xtb: 6.5.1 (b24c23e)
Zn          31.13732705376467        0.09039112585031       -0.03621310080412
C           27.72692276909352        0.20443442878638       -0.12256532394435
C           28.35186706626200        1.03613775914536        0.79941794771235
C           27.67451100433362        1.91640691990153        1.71101135298226
C           28.63038881312131        2.54340291178769        2.44130011839829
C           29.90399372562266        2.05793162763538        1.98120041661786
N           29.69928237586511        1.14461726935270        0.98857954773603
C           31.14975597373523        2.44252477492996        2.48710469654050
C           32.38941265660051        1.95816440758341        2.06202798188904
C           33.66427017252484        2.38278132921789        2.57033906224574
C           34.61624608137403        1.69775390445424        1.88723900966841
N           32.59136676990238        1.02742386567344        1.07807197048594
C           33.93362617817092        0.85158165528016        0.95160352789138
C           34.57095509938133       -0.00998968445351        0.03696066692030
C           33.92387080324251       -0.83962884729718       -0.90011870257587
C           34.59501435631631       -1.72848056930290       -1.80398095922728
C           33.63440132901112       -2.36165111210591       -2.52409112132920
C           32.36621471616858       -1.86063117563439       -2.07185909833840
C           31.11970813176654       -2.26868205550258       -2.55283736640698
C           31.11133604983549       -3.29458093406958       -3.63572422443078
C           31.53863606359581       -2.96631866058578       -4.92881059402912
O           31.93761813962038       -1.67938290057840       -5.11358469427499
C           32.40881569126241       -1.25097940491231       -6.37478788551728
C           31.52920040757303       -3.92610600268791       -5.94056340096686
C           31.09628199767297       -5.21193163164116       -5.65389179126486
C           30.67093106221071       -5.56103760742611       -4.38102685769065
C           30.67693619762560       -4.59977743950807       -3.37070805713696
O           30.28730619482625       -4.84762089169857       -2.09132432359815
C           29.83289114461445       -6.13242222142989       -1.71871251704811
C           29.87863574566404       -1.80078183579561       -2.10986429721560
C           28.60046737949870       -2.20228428268533       -2.63369522927902
C           27.65300967754055       -1.50748098432712       -1.95561022843700
C           28.34065294514586       -0.67053363161796       -1.01147525119919
N           29.68555789306875       -0.87042605171661       -1.13083692864351
N           32.58020114093296       -0.93894726477849       -1.08193307672523
C           31.15580760283474        3.46352420662509        3.57440467693482
C           31.51263381736176        3.10723237413891        4.88147668041262
O           31.83006213486360        1.79904874394857        5.07491925885941
C           32.22627326330173        1.34043609300089        6.35123355353006
C           31.51782971425608        4.06258620947505        5.89745906680637
C           31.16967970594886        5.37183754092314        5.60153228068552
C           30.81518677106793        5.74887823001937        4.31496598436428
C           30.80696644768368        4.79240572029427        3.30022397057254
O           30.48387606601345        5.06694914721712        2.00774697583248
C           30.11076682287730        6.37507835064074        1.62636161981374
H           26.64207751075083        0.24163880223603       -0.15090311374668
H           26.60327204643655        2.02869454347862        1.77689489086687
H           28.49262884580603        3.27093255949578        3.22541796379496
H           33.80804251832657        3.11441458358818        3.34927006445164
H           35.68758559366050        1.75689890551638        1.99754570560821
H           35.66481324214530       -1.85011856057216       -1.86864662671347
H           33.76785362769080       -3.10449933101964       -3.29422339921489
H           31.63219971046860       -1.33654395474203       -7.14472985248518
H           32.68165741579343       -0.20059745391312       -6.25671937257057
H           33.29318860116211       -1.81932705364527       -6.68777006261235
H           31.85332983856518       -3.68130465178485       -6.94324844307553
H           31.09022959753896       -5.95885730232536       -6.44020418857156
H           30.34051365232519       -6.57244180380909       -4.18544214838984
H           29.58410212314682       -6.07114680034711       -0.65753914820775
H           28.93703275088538       -6.42112401213103       -2.28201986405628
H           30.61124035626009       -6.89186522284063       -1.86227142451240
H           28.45453662007677       -2.92339325974303       -3.42229215785737
H           26.58145567339360       -1.54707941016498       -2.07687527478085
H           32.44253321501947        0.27641220931350        6.23829333111078
H           31.42646044059509        1.46846338523840        7.09089855873624
H           33.12904768167382        1.85581439245355        6.70111873318699
H           31.78841671991767        3.79638991146788        6.91053359066846
H           31.17478132161615        6.11513586896294        6.39127668572411
H           30.55066000702979        6.77810433155965        4.11221740859778
H           30.92435240009448        7.09112676057297        1.79566251009485
H           29.89086039729359        6.32933429352901        0.55804069335720
H           29.21529931071271        6.71084398418204        2.16356486297724
Zn          58.10359944409861        0.01329055932102       -0.08169063952304
C           61.51507271577622        0.06760931245001       -0.14936451110384
C           60.88730058258501       -0.67141504028377       -1.14545651426543
C           61.56228786641249       -1.41419948444033       -2.17374450948645
C           60.60362742032537       -1.98978730513188       -2.94178425233646
C           59.33087491890208       -1.60036851263829       -2.39617750447118
N           59.53865319670376       -0.80701716234645       -1.30572901260653
C           58.08216557961351       -1.98481577146858       -2.89464409111661
C           56.84279100721647       -1.62497340487540       -2.35915438518136
C           55.56575103739134       -1.99489490694633       -2.90318676448554
C           54.61571634867588       -1.44481648489824       -2.10493427230956
N           56.64426296173020       -0.85134834154505       -1.24672531041112
C           55.30205189366315       -0.73111880134209       -1.06730250029203
C           54.66828224563448       -0.03160769738151       -0.02081552754851
C           55.32011630525730        0.68063655438242        1.00567830288349
C           54.65265825709535        1.37075237084611        2.07114022781765
C           55.61577860603980        1.94111774891320        2.83891915197077
C           56.88196070049096        1.60955049881484        2.24676360054009
C           58.12979941598027        2.00483639410161        2.73604023379110
C           58.13934700728721        2.87027070382283        3.95070544064245
C           57.68117389247139        4.19277463532000        3.88233168496528
O           57.25854655232099        4.61291459672419        2.65991038595001
C           56.74344809170220        5.91768344199114        2.49081348613722
C           57.68689397134934        5.00229582665137        5.01784501488134
C           58.14756081047764        4.48533892485768        6.21922812741196
C           58.60595288087369        3.17990493856331        6.31174812737425
C           58.60383363055674        2.37204321920309        5.17501156506946
O           59.02502548219189        1.07861492580106        5.16933395362482
C           59.53293790143757        0.48745138597324        6.34770970988848
C           59.36934456215887        1.66207245386750        2.18639682776905
C           60.64967659148613        2.09377626736334        2.68012775182596
C           61.59490938246725        1.55080170597331        1.87274833859076
C           60.90377091100764        0.78591805260641        0.87179601447745
N           59.55894055998056        0.87668734108456        1.08690914014083
N           56.66431074695394        0.83567299353181        1.13804407161657
C           58.06994483232026       -2.85595879369498       -4.10531629195424
C           57.66660798631769       -4.19448019133592       -4.01038211919052
O           57.31751548840604       -4.62311247385010       -2.76788488459295
C           56.86519511252080       -5.94682471548607       -2.56896284319600
C           57.65027823179096       -5.00938620743310       -5.14194702326994
C           58.03360224872506       -4.48151745334460       -6.36556089590080
C           58.43643722381508       -3.15996849863982       -6.48442444036894
C           58.45673726257905       -2.34669581860626       -5.35171600142526
O           58.82764048199053       -1.03808432770584       -5.36992911342146
C           59.24962341816821       -0.43187323384371       -6.57425185973867
H           62.60056694109747        0.08552819061978       -0.17114429152290
H           62.63387187154704       -1.48186640160923       -2.28158591640356
H           60.73880083371667       -2.62357972328563       -3.80384078167836
H           55.41927312532273       -2.59735260509025       -3.78541174392581
H           53.54360170478442       -1.51021548067300       -2.20349475969678
H           53.58336474853971        1.40667095921054        2.20817489408723
H           55.48488957116812        2.53409441804702        3.72995691375338
H           57.49941087566619        6.68088886930456        2.71288845665096
H           56.45307984906107        5.99632412752816        1.44143988718334
H           55.86218339661291        6.08654147444995        3.12158470260999
H           57.33848456641957        6.02553154212390        4.97373706015653
H           58.14971850127613        5.11389702076014        7.10303084290699
H           58.95784042301045        2.80226597869093        7.26249103600621
H           59.81279130564259       -0.53315461933183        6.07980906757640
H           60.41975186218364        1.01913559049547        6.71393325012724
H           58.77614840858780        0.45628990681519        7.14109516061276
H           60.79889418300585        2.73215514280200        3.53644468671461
H           62.66712603141193        1.65452895086193        1.93676929256781
H           56.62907794828095       -6.03106878832176       -1.50649326560239
H           57.64038281811913       -6.67975981501340       -2.82424727129487
H           55.96234111601689       -6.15534176284528       -3.15580872819351
H           57.34380232593315       -6.04491277789946       -5.07786523456575
H           58.01833917500883       -5.11428873944806       -7.24622719717223
H           58.72819419158173       -2.77424544713819       -7.45212021907259
H           58.45203334377560       -0.43452220993091       -7.32727857644708
H           59.50151405992712        0.60028186539492       -6.32335760917878
H           60.13701279102070       -0.92891533137294       -6.98502880802287
C           37.19932814452992       -0.06199075969639        0.06886468668349
C           35.97773533547583       -0.04100637446072        0.05755775087936
C           38.55000894525002       -0.07642338752794        0.07645606632528
C           39.77185226452630       -0.08601861689696        0.07537520469852
C           50.68966502682753       -0.07066442548321        0.01995965918029
C           49.46758285571733       -0.08215447945331        0.02598381375952
C           52.03989505759868       -0.05827870134363        0.00981177438902
C           53.26183692425795       -0.04586441289576       -0.00080824782143
Zn          44.61962993321010       -0.09520117118705        0.05157212142519
C           41.17859889420679       -0.09228089897090        0.06957410123096
C           41.82864157375163       -0.01763746439474        1.31742568623756
C           41.15890978915368        0.03668395913490        2.58406602436317
C           42.12185538349569        0.08838407247400        3.53969749871126
C           43.38902501905047        0.07310812812466        2.86467303416584
N           43.17367739061731        0.00428238231748        1.51433133048285
C           44.63752732038009        0.10602100825746        3.49087936162154
C           45.87930402440184        0.07562391702284        2.85110763503155
C           47.15288321607846        0.14967988580697        3.50984294461785
C           48.10607234818087        0.10125338184062        2.54420846093849
N           46.08102282227636       -0.00938915794723        1.49962464002398
C           47.42379553337910       -0.00040122000142        1.28729637098621
C           48.06144410077471       -0.09003653973660        0.03364510447826
C           47.41072622928686       -0.18464177866803       -1.21295015053925
C           48.08016649158417       -0.28585816718549       -2.47674792883017
C           47.11718102097951       -0.33710567239028       -3.43242527619079
C           45.85017816810870       -0.26404250706311       -2.76093180961711
C           44.60180070706463       -0.29089322506065       -3.38853267285152
C           44.59535416859141       -0.34953625769142       -4.87896432490017
C           44.16817322509916       -1.50486687157870       -5.54611409341865
O           43.78485835674571       -2.54148370116605       -4.75360720215693
C           43.30235988589253       -3.73923804927214       -5.32705553989450
C           44.16310204678953       -1.55420954446546       -6.93986949088402
C           44.58093788234471       -0.44609212688446       -7.66123974657825
C           45.00553526822780        0.70957400003240       -7.02321908333901
C           45.01448165988243        0.75702119346486       -5.62958341629217
O           45.40279680815493        1.84662741481996       -4.91470206035343
C           45.86788679778847        3.00668843298329       -5.57365835174456
C           43.35973472233161       -0.25821977393712       -2.74904341519770
C           42.08534278040564       -0.26603309412558       -3.41055374052493
C           41.13270714126974       -0.21549570783604       -2.44467178523352
C           41.81583129697750       -0.16843911849297       -1.18492684281158
N           43.15868210550406       -0.19440276528756       -1.39617753523808
N           46.06571908042370       -0.17943133007282       -1.41151929963881
C           44.64677525618805        0.17674675480399        4.98097171641250
C           45.04992360110431       -0.93125383128841        5.73760639787317
O           45.40714734796565       -2.03539169224169        5.02889688139475
C           45.84386609056073       -3.20265060582890        5.69455786741370
C           45.05786563975882       -0.86944222152529        7.13075374009219
C           44.66614941540691        0.30189686785954        7.76125591659529
C           44.26434324068583        1.41172675723265        7.03333811802320
C           44.25260364657512        1.34803702013276        5.64022577913050
O           43.88281299871134        2.38374685061166        4.84024895915339
C           43.45008257246140        3.60433459574408        5.40512246516702
H           40.08846500844670        0.03074232770271        2.71644633215046
H           41.98995197001530        0.13238417118433        4.60897099626131
H           47.29530850341716        0.23109149748624        4.57560412615732
H           49.17758707935255        0.13254394903965        2.66370279139293
H           49.15044407438150       -0.31534944209818       -2.60726786324274
H           47.24910819117363       -0.41956503284054       -4.49942397545033
H           42.40932182050247       -3.56059496115069       -5.93836161584900
H           43.04010851178302       -4.39199002152226       -4.49230664882495
H           44.06866712690633       -4.22942998331244       -5.93998912480225
H           43.83926054355019       -2.44335738095204       -7.46416486061987
H           44.57523838670762       -0.48384538896396       -8.74510005035370
H           45.32306803085021        1.56036009701600       -7.61116819255179
H           46.13257482404380        3.71692898635601       -4.78803397160544
H           45.09045221965768        3.44728905768630       -6.20979042989006
H           46.75612678067615        2.79483479101588       -6.18126283197570
H           41.94138709438117       -0.30451248655843       -4.47843220914923
H           40.06100702828255       -0.20535878894532       -2.56603984460711
H           45.05931149693730       -3.61442229920769        6.34118340954059
H           46.08082218110884       -3.92739552905169        4.91334855981155
H           46.74311321767495       -3.01161239604393        6.29279125351390
H           45.36384658990630       -1.72073899071034        7.72407405391362
H           44.67397999636261        0.35087134639219        8.84466118886814
H           43.96580530804558        2.31296074027619        7.55199804348876
H           44.24118402951706        4.07424982961380        6.00222834264365
H           42.55939256892524        3.46464448167275        6.02984579718748
H           43.20006875754289        4.25606677408489        4.56582762999987

          :  Hamiltonian                  GFN1-xTB          :
         :: total energy            -385.305619553556 Eh    ::
         :: gradient norm              0.000347903567 Eh/a0 ::
         :: HOMO-LUMO gap              0.974116255388 eV    ::
         :: SCC energy              -390.739682074638 Eh    ::
         :: repulsion energy           5.630510600996 Eh    ::

    * Orbital Energies and Occupations

         #    Occupation            Energy/Eh            Energy/eV
      -------------------------------------------------------------
         1        2.0000           -0.8027528             -21.8440
       ...           ...                  ...                  ...
       329        2.0000           -0.4026633             -10.9570
       330        2.0000           -0.4024038             -10.9500
       331        2.0000           -0.4023541             -10.9486
       332        2.0000           -0.4022407             -10.9455
       333        2.0000           -0.4014049             -10.9228
       334        2.0000           -0.4011613             -10.9162
       335        2.0000           -0.3968327             -10.7984
       336        2.0000           -0.3752344             -10.2106
       337        2.0000           -0.3751601             -10.2086
       338        2.0000           -0.3750802             -10.2065
       339        2.0000           -0.3698983             -10.0654
       340        2.0000           -0.3639602              -9.9039
       341        2.0000           -0.3564288              -9.6989 (HOMO)
       342                         -0.3206307              -8.7248 (LUMO)
       343                         -0.3119199              -8.4878
       344                         -0.3073686              -8.3639
       345                         -0.3073657              -8.3638
       346                         -0.3072612              -8.3610
       347                         -0.3051562              -8.3037
       348                         -0.2811226              -7.6497
       349                         -0.2742421              -7.4625
       350                         -0.2716725              -7.3926
       351                         -0.2505026              -6.8165
       352                         -0.2503699              -6.8129
       ...                                ...                  ...
       732                          1.5357596              41.7901
      -------------------------------------------------------------
                  HL-Gap            0.0357981 Eh            0.9741 eV

Wiberg/Mayer (AO) data.
largest (>0.10) Wiberg bond orders for each atom

     #   Z sym  total        # sym  WBO       # sym  WBO       # sym  WBO
 ---------------------------------------------------------------------------
     1  30 Zn   2.000 --    34 N    0.460     7 N    0.460    12 N    0.457
                            35 N    0.457
     2   6 C    3.929 --     3 C    1.357    33 C    1.357    46 H    0.972
     3   6 C    3.924 --     2 C    1.357     7 N    1.235     4 C    1.170
     4   6 C    3.960 --     5 C    1.660     3 C    1.170    47 H    0.976
     5   6 C    3.964 --     4 C    1.660     6 C    1.172    48 H    0.975
     6   6 C    3.917 --     8 C    1.320     7 N    1.242     5 C    1.172
     7   7 N    3.295 --     6 C    1.242     3 C    1.235     1 Zn   0.460
     8   6 C    3.934 --     9 C    1.330     6 C    1.320    36 C    1.013
     9   6 C    3.913 --     8 C    1.330    12 N    1.223    10 C    1.178
    10   6 C    3.961 --    11 C    1.649     9 C    1.178    49 H    0.975
    11   6 C    3.962 --    10 C    1.649    13 C    1.184    50 H    0.974
    12   7 N    3.299 --    13 C    1.264     9 C    1.223     1 Zn   0.457
    13   6 C    3.906 --    12 N    1.264    14 C    1.257    11 C    1.184
    14   6 C    3.939 --    13 C    1.257    15 C    1.257   146 C    1.184
    15   6 C    3.906 --    35 N    1.264    14 C    1.257    16 C    1.184
    16   6 C    3.962 --    17 C    1.649    15 C    1.184    51 H    0.974
    17   6 C    3.961 --    16 C    1.649    18 C    1.178    52 H    0.975
    18   6 C    3.913 --    19 C    1.331    35 N    1.223    17 C    1.178
    19   6 C    3.934 --    18 C    1.331    30 C    1.320    20 C    1.013
    20   6 C    3.978 --    27 C    1.345    21 C    1.344    19 C    1.013
                            25 C    0.101
    21   6 C    3.903 --    24 C    1.362    20 C    1.344    22 O    1.029
    22   8 O    2.143 --    21 C    1.029    23 C    0.936
    23   6 C    3.908 --    54 H    0.983    55 H    0.980    53 H    0.980
                            22 O    0.936
    24   6 C    3.983 --    25 C    1.442    21 C    1.362    56 H    0.969
    25   6 C    3.993 --    24 C    1.442    26 C    1.442    57 H    0.974
                            20 C    0.101
    26   6 C    3.983 --    25 C    1.442    27 C    1.362    58 H    0.969
    27   6 C    3.903 --    26 C    1.362    20 C    1.345    28 O    1.029
    28   8 O    2.143 --    27 C    1.029    29 C    0.937
    29   6 C    3.909 --    59 H    0.983    60 H    0.980    61 H    0.980
                            28 O    0.937
    30   6 C    3.918 --    19 C    1.320    34 N    1.242    31 C    1.172
    31   6 C    3.963 --    32 C    1.660    30 C    1.172    62 H    0.975
    32   6 C    3.960 --    31 C    1.660    33 C    1.170    63 H    0.976
    33   6 C    3.924 --     2 C    1.357    34 N    1.235    32 C    1.170
    34   7 N    3.295 --    30 C    1.242    33 C    1.235     1 Zn   0.460
    35   7 N    3.299 --    15 C    1.264    18 C    1.223     1 Zn   0.457
    36   6 C    3.978 --    43 C    1.344    37 C    1.344     8 C    1.013
                            41 C    0.101
    37   6 C    3.903 --    40 C    1.362    36 C    1.344    38 O    1.029
    38   8 O    2.143 --    37 C    1.029    39 C    0.936
    39   6 C    3.908 --    64 H    0.983    66 H    0.980    65 H    0.980
                            38 O    0.936
    40   6 C    3.983 --    41 C    1.442    37 C    1.362    67 H    0.969
    41   6 C    3.993 --    40 C    1.442    42 C    1.442    68 H    0.974
                            36 C    0.101
    42   6 C    3.983 --    41 C    1.442    43 C    1.362    69 H    0.969
    43   6 C    3.902 --    42 C    1.362    36 C    1.344    44 O    1.029
    44   8 O    2.143 --    43 C    1.029    45 C    0.937
    45   6 C    3.909 --    71 H    0.983    72 H    0.980    70 H    0.980
                            44 O    0.937
    46   1 H    1.002 --     2 C    0.972
    47   1 H    0.999 --     4 C    0.976
    48   1 H    1.003 --     5 C    0.975
    49   1 H    1.003 --    10 C    0.975
    50   1 H    1.003 --    11 C    0.974
    51   1 H    1.003 --    16 C    0.974
    52   1 H    1.003 --    17 C    0.975
    53   1 H    1.009 --    23 C    0.980
    54   1 H    1.016 --    23 C    0.983
    55   1 H    1.009 --    23 C    0.980
    56   1 H    1.000 --    24 C    0.969
    57   1 H    1.003 --    25 C    0.974
    58   1 H    1.000 --    26 C    0.969
    59   1 H    1.016 --    29 C    0.983
    60   1 H    1.009 --    29 C    0.980
    61   1 H    1.009 --    29 C    0.980
    62   1 H    1.003 --    31 C    0.975
    63   1 H    0.999 --    32 C    0.976
    64   1 H    1.016 --    39 C    0.983
    65   1 H    1.009 --    39 C    0.980
    66   1 H    1.009 --    39 C    0.980
    67   1 H    1.000 --    40 C    0.969
    68   1 H    1.003 --    41 C    0.974
    69   1 H    1.000 --    42 C    0.969
    70   1 H    1.009 --    45 C    0.980
    71   1 H    1.016 --    45 C    0.983
    72   1 H    1.009 --    45 C    0.980
    73  30 Zn   2.000 --   106 N    0.460    79 N    0.460    84 N    0.457
                           107 N    0.457
    74   6 C    3.928 --   105 C    1.357    75 C    1.357   118 H    0.972
    75   6 C    3.924 --    74 C    1.357    79 N    1.235    76 C    1.170
    76   6 C    3.960 --    77 C    1.660    75 C    1.170   119 H    0.976
    77   6 C    3.964 --    76 C    1.660    78 C    1.173   120 H    0.975
    78   6 C    3.917 --    80 C    1.320    79 N    1.242    77 C    1.173
    79   7 N    3.295 --    78 C    1.242    75 C    1.235    73 Zn   0.460
    80   6 C    3.933 --    81 C    1.330    78 C    1.320   108 C    1.013
    81   6 C    3.913 --    80 C    1.330    84 N    1.223    82 C    1.178
    82   6 C    3.960 --    83 C    1.649    81 C    1.178   121 H    0.975
    83   6 C    3.962 --    82 C    1.649    85 C    1.184   122 H    0.974
    84   7 N    3.299 --    85 C    1.264    81 C    1.223    73 Zn   0.457
    85   6 C    3.905 --    84 N    1.264    86 C    1.255    83 C    1.184
    86   6 C    3.938 --    87 C    1.256    85 C    1.255   152 C    1.186
    87   6 C    3.905 --   107 N    1.264    86 C    1.256    88 C    1.184
    88   6 C    3.962 --    89 C    1.649    87 C    1.184   123 H    0.974
    89   6 C    3.961 --    88 C    1.649    90 C    1.178   124 H    0.975
    90   6 C    3.913 --    91 C    1.330   107 N    1.223    89 C    1.178
    91   6 C    3.933 --    90 C    1.330   102 C    1.320    92 C    1.014
    92   6 C    3.978 --    99 C    1.344    93 C    1.343    91 C    1.014
                            97 C    0.101
    93   6 C    3.903 --    96 C    1.362    92 C    1.343    94 O    1.030
    94   8 O    2.144 --    93 C    1.030    95 C    0.936
    95   6 C    3.908 --   126 H    0.983   127 H    0.980   125 H    0.980
                            94 O    0.936
    96   6 C    3.983 --    97 C    1.442    93 C    1.362   128 H    0.969
    97   6 C    3.992 --    96 C    1.442    98 C    1.442   129 H    0.974
                            92 C    0.101
    98   6 C    3.983 --    97 C    1.442    99 C    1.362   130 H    0.969
    99   6 C    3.902 --    98 C    1.362    92 C    1.344   100 O    1.029
   100   8 O    2.143 --    99 C    1.029   101 C    0.937
   101   6 C    3.909 --   131 H    0.983   132 H    0.980   133 H    0.980
                           100 O    0.937
   102   6 C    3.917 --    91 C    1.320   106 N    1.242   103 C    1.173
   103   6 C    3.964 --   104 C    1.660   102 C    1.173   134 H    0.975
   104   6 C    3.960 --   103 C    1.660   105 C    1.170   135 H    0.976
   105   6 C    3.924 --    74 C    1.357   106 N    1.235   104 C    1.170
   106   7 N    3.295 --   102 C    1.242   105 C    1.235    73 Zn   0.460
   107   7 N    3.299 --    87 C    1.264    90 C    1.223    73 Zn   0.457
   108   6 C    3.978 --   115 C    1.345   109 C    1.344    80 C    1.013
                           113 C    0.101
   109   6 C    3.903 --   112 C    1.362   108 C    1.344   110 O    1.030
   110   8 O    2.143 --   109 C    1.030   111 C    0.936
   111   6 C    3.908 --   136 H    0.983   138 H    0.980   137 H    0.980
                           110 O    0.936
   112   6 C    3.983 --   113 C    1.442   109 C    1.362   139 H    0.969
   113   6 C    3.993 --   112 C    1.442   114 C    1.442   140 H    0.974
                           108 C    0.101
   114   6 C    3.983 --   113 C    1.442   115 C    1.362   141 H    0.969
   115   6 C    3.902 --   114 C    1.362   108 C    1.345   116 O    1.029
   116   8 O    2.143 --   115 C    1.029   117 C    0.937
   117   6 C    3.909 --   143 H    0.983   144 H    0.980   142 H    0.980
                           116 O    0.937
   118   1 H    1.002 --    74 C    0.972
   119   1 H    0.999 --    76 C    0.976
   120   1 H    1.003 --    77 C    0.975
   121   1 H    1.002 --    82 C    0.975
   122   1 H    1.003 --    83 C    0.974
   123   1 H    1.003 --    88 C    0.974
   124   1 H    1.003 --    89 C    0.975
   125   1 H    1.009 --    95 C    0.980
   126   1 H    1.016 --    95 C    0.983
   127   1 H    1.009 --    95 C    0.980
   128   1 H    1.000 --    96 C    0.969
   129   1 H    1.003 --    97 C    0.974
   130   1 H    1.000 --    98 C    0.969
   131   1 H    1.016 --   101 C    0.983
   132   1 H    1.009 --   101 C    0.980
   133   1 H    1.009 --   101 C    0.980
   134   1 H    1.003 --   103 C    0.975
   135   1 H    0.999 --   104 C    0.976
   136   1 H    1.016 --   111 C    0.983
   137   1 H    1.009 --   111 C    0.980
   138   1 H    1.009 --   111 C    0.980
   139   1 H    1.000 --   112 C    0.969
   140   1 H    1.003 --   113 C    0.974
   141   1 H    1.000 --   114 C    0.969
   142   1 H    1.009 --   117 C    0.980
   143   1 H    1.016 --   117 C    0.983
   144   1 H    1.009 --   117 C    0.980
   145   6 C    3.934 --   146 C    2.480   147 C    1.303
   146   6 C    3.921 --   145 C    2.480    14 C    1.184   148 C    0.198
   147   6 C    3.931 --   148 C    2.479   145 C    1.303
   148   6 C    3.922 --   147 C    2.479   154 C    1.185   146 C    0.198
   149   6 C    3.931 --   150 C    2.476   151 C    1.306
   150   6 C    3.923 --   149 C    2.476   166 C    1.188   152 C    0.198
   151   6 C    3.934 --   152 C    2.477   149 C    1.306
   152   6 C    3.922 --   151 C    2.477    86 C    1.186   150 C    0.198
   153  30 Zn   1.996 --   187 N    0.457   186 N    0.457   159 N    0.457
                           164 N    0.457
   154   6 C    3.927 --   155 C    1.255   185 C    1.255   148 C    1.185
   155   6 C    3.906 --   159 N    1.264   154 C    1.255   156 C    1.186
   156   6 C    3.960 --   157 C    1.646   155 C    1.186   198 H    0.974
   157   6 C    3.961 --   156 C    1.646   158 C    1.181   199 H    0.975
   158   6 C    3.911 --   160 C    1.326   159 N    1.223   157 C    1.181
   159   7 N    3.293 --   155 C    1.264   158 C    1.223   153 Zn   0.457
   160   6 C    3.929 --   158 C    1.326   161 C    1.326   188 C    1.012
   161   6 C    3.911 --   160 C    1.326   164 N    1.223   162 C    1.181
   162   6 C    3.961 --   163 C    1.645   161 C    1.181   200 H    0.975
   163   6 C    3.960 --   162 C    1.645   165 C    1.186   201 H    0.974
   164   7 N    3.293 --   165 C    1.264   161 C    1.223   153 Zn   0.457
   165   6 C    3.905 --   164 N    1.264   166 C    1.254   163 C    1.186
   166   6 C    3.927 --   167 C    1.254   165 C    1.254   150 C    1.188
   167   6 C    3.905 --   187 N    1.264   166 C    1.254   168 C    1.186
   168   6 C    3.960 --   169 C    1.645   167 C    1.186   202 H    0.974
   169   6 C    3.961 --   168 C    1.645   170 C    1.181   203 H    0.975
   170   6 C    3.910 --   171 C    1.325   187 N    1.223   169 C    1.181
   171   6 C    3.929 --   182 C    1.326   170 C    1.325   172 C    1.014
   172   6 C    3.978 --   173 C    1.344   179 C    1.343   171 C    1.014
                           177 C    0.101
   173   6 C    3.903 --   176 C    1.362   172 C    1.344   174 O    1.029
   174   8 O    2.143 --   173 C    1.029   175 C    0.936
   175   6 C    3.908 --   205 H    0.983   204 H    0.980   206 H    0.980
                           174 O    0.936
   176   6 C    3.983 --   177 C    1.442   173 C    1.362   207 H    0.969
   177   6 C    3.993 --   176 C    1.442   178 C    1.442   208 H    0.974
                           172 C    0.101
   178   6 C    3.983 --   177 C    1.442   179 C    1.362   209 H    0.969
   179   6 C    3.903 --   178 C    1.362   172 C    1.343   180 O    1.030
   180   8 O    2.144 --   179 C    1.030   181 C    0.936
   181   6 C    3.908 --   210 H    0.983   212 H    0.980   211 H    0.980
                           180 O    0.936
   182   6 C    3.911 --   171 C    1.326   186 N    1.223   183 C    1.181
   183   6 C    3.961 --   184 C    1.646   182 C    1.181   213 H    0.975
   184   6 C    3.960 --   183 C    1.646   185 C    1.186   214 H    0.974
   185   6 C    3.906 --   186 N    1.264   154 C    1.255   184 C    1.186
   186   7 N    3.293 --   185 C    1.264   182 C    1.223   153 Zn   0.457
   187   7 N    3.294 --   167 C    1.264   170 C    1.223   153 Zn   0.457
   188   6 C    3.978 --   195 C    1.345   189 C    1.344   160 C    1.012
                           193 C    0.101
   189   6 C    3.903 --   192 C    1.362   188 C    1.344   190 O    1.030
   190   8 O    2.144 --   189 C    1.030   191 C    0.936
   191   6 C    3.908 --   216 H    0.983   217 H    0.980   215 H    0.980
                           190 O    0.936
   192   6 C    3.983 --   193 C    1.442   189 C    1.362   218 H    0.969
   193   6 C    3.993 --   194 C    1.442   192 C    1.442   219 H    0.974
                           188 C    0.101
   194   6 C    3.983 --   193 C    1.442   195 C    1.362   220 H    0.969
   195   6 C    3.903 --   194 C    1.362   188 C    1.345   196 O    1.030
   196   8 O    2.143 --   195 C    1.030   197 C    0.936
   197   6 C    3.908 --   223 H    0.983   222 H    0.980   221 H    0.980
                           196 O    0.936
   198   1 H    1.003 --   156 C    0.974
   199   1 H    1.003 --   157 C    0.975
   200   1 H    1.002 --   162 C    0.975
   201   1 H    1.003 --   163 C    0.974
   202   1 H    1.003 --   168 C    0.974
   203   1 H    1.003 --   169 C    0.975
   204   1 H    1.009 --   175 C    0.980
   205   1 H    1.016 --   175 C    0.983
   206   1 H    1.009 --   175 C    0.980
   207   1 H    1.000 --   176 C    0.969
   208   1 H    1.003 --   177 C    0.974
   209   1 H    1.000 --   178 C    0.969
   210   1 H    1.016 --   181 C    0.983
   211   1 H    1.009 --   181 C    0.980
   212   1 H    1.009 --   181 C    0.980
   213   1 H    1.003 --   183 C    0.975
   214   1 H    1.003 --   184 C    0.974
   215   1 H    1.009 --   191 C    0.980
   216   1 H    1.016 --   191 C    0.983
   217   1 H    1.009 --   191 C    0.980
   218   1 H    1.000 --   192 C    0.969
   219   1 H    1.003 --   193 C    0.974
   220   1 H    1.000 --   194 C    0.969
   221   1 H    1.009 --   197 C    0.980
   222   1 H    1.009 --   197 C    0.980
   223   1 H    1.016 --   197 C    0.983
 ---------------------------------------------------------------------------

           -------------------------------------------------
          | TOTAL ENERGY             -385.305619553556 Eh   |
          | GRADIENT NORM               0.000347903567 Eh/α |
          | HOMO-LUMO GAP               0.974116255388 eV   |
           -------------------------------------------------

 * finished run on 2022/07/30 at 15:04:18.637
