   * xtb version 6.5.1 (b24c23e) compiled by 'conda@728c89f4b128' on 2022-07-12
          program call               : xtb Cu_DHP_C6_2.xyz --gfn 1 --opt -T 48

   ID    Z sym.   atoms
    1   29 Cu     1, 59
    2    6 C      2-6, 8-11, 13-17, 19-24, 26-29, 31-36, 60-64, 66-69, 71-75,
                  77-82, 84-87, 89-94, 117-122
    3    7 N      7, 12, 18, 25, 30, 37, 65, 70, 76, 83, 88, 95
    4    1 H      38-58, 96-116
########################################################################
[WARNING] Please study the warnings concerning your input carefully
-1- prog_main_parseArguments: Unknown option '-T' provided
########################################################################

          :  Hamiltonian                  GFN1-xTB          :
 * total energy  :  -206.8808674 Eh     change       -0.1950070E-08 Eh
 * total energy  :  -208.8143651 Eh     change       -0.1933498E+01 Eh
 * total energy  :  -209.0266401 Eh     change       -0.2122750E+00 Eh
 * total energy  :  -209.1116481 Eh     change       -0.8500806E-01 Eh
 * total energy  :  -209.1602708 Eh     change       -0.4862268E-01 Eh
 * total energy  :  -209.1822247 Eh     change       -0.2195389E-01 Eh
 * total energy  :  -209.1982187 Eh     change       -0.1599398E-01 Eh
 * total energy  :  -209.2104291 Eh     change       -0.1221046E-01 Eh
 * total energy  :  -209.2197174 Eh     change       -0.9288242E-02 Eh
 * total energy  :  -209.2268397 Eh     change       -0.7122331E-02 Eh
 * total energy  :  -209.2531327 Eh     change       -0.2070442E-04 Eh
 * total energy  :  -209.2531541 Eh     change       -0.2136599E-04 Eh
 * total energy  :  -209.2531623 Eh     change       -0.8185733E-05 Eh
 * total energy  :  -209.2531736 Eh     change       -0.1131532E-04 Eh
 * total energy  :  -209.2531862 Eh     change       -0.1266124E-04 Eh
 * total energy  :  -209.2531965 Eh     change       -0.1028296E-04 Eh
 * total energy  :  -209.2531784 Eh     change        0.1814833E-04 Eh
 * total energy  :  -209.2532021 Eh     change       -0.2368132E-04 Eh
 * total energy  :  -209.2532038 Eh     change       -0.1720526E-05 Eh
   *** GEOMETRY OPTIMIZATION CONVERGED AFTER 46 ITERATIONS ***

 final structure:
================
122
 xtb: 6.5.1 (b24c23e)
Cu          12.63090376548980       -0.03712244092823       -0.00899459141805
C            9.22800132413558       -0.05541316828872       -0.14490673331752
C            9.85975500895201       -1.29011422851496       -0.16412683968302
C            9.18123753015010       -2.55391833495834       -0.19056445925668
C           10.13786821396833       -3.51544518491048       -0.20313990249209
C           11.41065757488012       -2.84704998095399       -0.19740667055193
N           11.20976591114333       -1.49680533534690       -0.16401312423679
C           12.65400368721545       -3.48424491329034       -0.20958246783829
C           12.66974714929435       -4.96499407638149       -0.30698022229321
C           12.16255885320941       -5.60510744577526       -1.37096597384379
C           12.15551968904271       -7.10744905568469       -1.48417088387033
N           13.08463815889887       -7.71532991765771       -0.52769570230093
C           13.41950161868971       -7.06041016712339        0.62962285405532
C           13.27237719339073       -5.73175718123922        0.77440563673630
C           13.88693853106220       -2.83219686971044       -0.14100560319790
C           15.16390027974293       -3.48372422275025       -0.21048127198761
C           16.11111815036744       -2.51531764898484       -0.12617629260003
N           14.07707803629964       -1.48039973157434       -0.02345699723664
C           15.42067417261608       -1.26611187296408       -0.00969547827579
C           16.05727756714550       -0.01770371777046        0.10934285653313
C           15.39981193592404        1.22273048913567        0.19197320739833
C           16.06603637474928        2.47876516653655        0.36242519947257
C           15.10392134269762        3.43590910453673        0.38748220675114
C           13.84264282809224        2.77083993052515        0.22352995613566
N           14.05604516600241        1.42182277670489        0.11393990162946
C           12.60094360473405        3.40939068149211        0.19924101072732
C           12.59160781272035        4.89018389604417        0.29698225981324
C           11.99213075773490        5.52436632263316        1.31555650748676
C           11.95416682186671        7.02646682505325        1.42551932643075
N           12.93758095319715        7.64950856955091        0.53531000061142
C           13.37591034679863        6.99579544808950       -0.58724537179073
C           13.26639715252947        5.66389907766236       -0.73561480069470
C           11.36935387138193        2.75901748182581        0.08723153592153
C           10.09313630333829        3.41388715885049       -0.00941047029481
C            9.15106422162711        2.44236673336039       -0.10131547188696
C            9.84293091696906        1.18586585137171       -0.07397618151557
N           11.18622877601531        1.40683415715801        0.03589752096885
H            8.14363374065016       -0.06118381381398       -0.18931286103290
H            8.10936106790264       -2.67604251609157       -0.18784195922223
H           10.00081015155346       -4.58485037652559       -0.20363860032392
H           11.71594089647559       -5.06891909777602       -2.20023355221966
H           12.46136351058892       -7.41205020624007       -2.49420227315391
H           11.13331846265186       -7.49789383109445       -1.32104136419634
H           13.00172800436369       -8.71963101874515       -0.46238919622888
H           13.89004502941296       -7.68288897056750        1.38404155109281
H           13.58940212755437       -5.22427103977697        1.67441146596213
H           15.31232424439399       -4.54588751860309       -0.31973989394705
H           17.18350837134288       -2.62675551281952       -0.14528526625623
H           17.13316953125763        2.60145969273901        0.45760606582892
H           15.23169854490340        4.49880766890963        0.51450512249431
H           11.48769898817696        4.98283151913426        2.10737434919117
H           12.18334678362514        7.33646693523872        2.45418645808318
H           10.93986987866935        7.40048740586029        1.19072310247789
H           12.83925057909553        8.65146924111895        0.45746494688152
H           13.89235210633652        7.62414154423473       -1.30592836134958
H           13.66368713309661        5.15915008178681       -1.60476735637285
H            9.94484445396161        4.48174544228711       -0.01871319034259
H            8.08173583890888        2.55325746304839       -0.19123749765433
Cu          28.65926681756558        0.03754520940731       -0.00072838817265
C           32.06216037405996        0.08489690121888       -0.12973450434388
C           31.43033735301837        1.29492285076287        0.11645101140283
C           32.10874011430683        2.53502895210838        0.36179277214370
C           31.15202015841846        3.47671571166576        0.55607646164213
C           29.87929129560987        2.82251634758046        0.41835835679918
N           30.08031273896589        1.49661358764217        0.16112420834300
C           28.63589157882112        3.44733854304470        0.54347554533138
C           28.62030786177857        4.91449518023241        0.76611993771426
C           29.12719568764103        5.76778628499801       -0.13610465418598
C           29.13512434232289        7.25939373102335        0.07580304708980
N           28.20634463448554        7.64821161471731        1.14059308385661
C           27.87176893827252        6.76043044322463        2.13072811733221
C           28.01849426419777        5.43160102265696        1.98713169431151
C           27.40300730162011        2.79570578173397        0.47059828743777
C           26.12601130327702        3.44685521632588        0.54288644194818
C           25.17885036101943        2.48290310841552        0.41711844506777
N           27.21294909025474        1.45021559828199        0.29486903115308
C           25.86936891345113        1.23795361602452        0.26197131290560
C           25.23285388641814       -0.00691067777981        0.10982098971971
C           25.89041836943948       -1.23614710604907       -0.07555105750163
C           25.22431983846035       -2.49960804769283       -0.17812606757067
C           26.18650868218834       -3.43977801631613       -0.35898365896894
C           27.44774874001125       -2.75494562085704       -0.37634798271617
N           27.23423351054125       -1.41384168360141       -0.19404818503772
C           28.68951349809437       -3.37335993578197       -0.53700275762783
C           28.69866466337198       -4.84060699656935       -0.75944361515684
C           29.29806129077958       -5.67893634631152        0.09902668529610
C           29.33509953960764       -7.16968001246857       -0.11585434320455
N           28.35178887021792       -7.58669199805176       -1.11934551607594
C           27.91355231072258       -6.70695137313819       -2.07516428979636
C           28.02344146215209       -5.37430923200044       -1.93396487012745
C           29.92105883834875       -2.71403587045646       -0.50673515165587
C           31.19735755611988       -3.33281740164957       -0.74146158832298
C           32.13932418755621       -2.36409196882632       -0.62282642144079
C           31.44732210761270       -1.14276151771354       -0.32666444724307
N           30.10404631476212       -1.38229278889335       -0.26677824658358
H           33.14652325299619        0.10015239659849       -0.17196546044953
H           33.18060036283619        2.65389314101087        0.39050855143377
H           31.28898831179812        4.52131023596194        0.78514397839954
H           29.57313961933388        5.42177969101015       -1.06133804976356
H           28.82948580027596        7.77394539133688       -0.84521862621288
H           30.15757327233307        7.60506918042270        0.31886680451770
H           28.28948467190765        8.61515014977132        1.41966385337762
H           27.40177002594625        7.20676620830799        3.00131494498698
H           27.70171143214628        4.74299486029001        2.75753854070923
H           25.97754231680370        4.50765318862170        0.66460721264478
H           24.10645580200693        2.59579894390991        0.42239005707558
H           24.15718721160622       -2.63991666716637       -0.11159054700065
H           26.05879941172320       -4.50520345729204       -0.46285383111332
H           29.80287595932092       -5.32029001468770        0.98853680109145
H           29.10521282281642       -7.69294740374954        0.82230823283655
H           30.34928033083744       -7.48536013805129       -0.42500997546682
H           28.45001919979764       -8.54851525033141       -1.41072186932908
H           27.39691459441054       -7.16608923721991       -2.91201567362267
H           27.62621862501819       -4.69452358709031       -2.67433297098914
H           31.34576490911655       -4.37382501812807       -0.97953752500565
H           33.20867563785148       -2.45297547259590       -0.73434819544417
C           21.25919916906918       -0.01982356049663        0.16798974966456
C           20.03097888096400       -0.01540244072256        0.16914983456288
C           18.68632102141876       -0.01364098314151        0.15830407270635
C           17.46258842642207       -0.01069531408548        0.14135190089600
C           22.60386560397844       -0.02047751555375        0.15824749543970
C           23.82756148482677       -0.02064670184537        0.14033985051568

          :  Hamiltonian                  GFN1-xTB          :
         :: total energy            -209.253203783267 Eh    ::
         :: gradient norm              0.000346821350 Eh/a0 ::
         :: HOMO-LUMO gap              0.002565943590 eV    ::
         :: SCC energy              -212.472760942725 Eh    ::
         :: repulsion energy           3.325134418994 Eh    ::

    * Orbital Energies and Occupations

         #    Occupation            Energy/Eh            Energy/eV
      -------------------------------------------------------------
         1        2.0000           -0.7787227             -21.1901
       ...           ...                  ...                  ...
       182        2.0000           -0.3998801             -10.8813
       183        2.0000           -0.3998692             -10.8810
       184        2.0000           -0.3998668             -10.8809
       185        2.0000           -0.3997570             -10.8779
       186        2.0000           -0.3870214             -10.5314
       187        2.0000           -0.3870197             -10.5313
       188        2.0000           -0.3834877             -10.4352
       189        2.0000           -0.3738863             -10.1740
       190        2.0000           -0.3688492             -10.0369
       191        2.0000           -0.3688451             -10.0368
       192        2.0000           -0.3679860             -10.0134
       193        2.0000           -0.3670639              -9.9883
       194        1.0248           -0.3473144              -9.4509 (HOMO)
       195        0.9752           -0.3472201              -9.4483 (LUMO)
       196                         -0.3295790              -8.9683
       197                         -0.3185843              -8.6691
       198                         -0.3185823              -8.6691
       199                         -0.3178645              -8.6495
       200                         -0.2903992              -7.9022
       201                         -0.2832835              -7.7085
       202                         -0.2754374              -7.4950
       203                         -0.2637650              -7.1774
       204                         -0.2633005              -7.1648
       205                         -0.2632950              -7.1646
       ...                                ...                  ...
       414                          1.5886371              43.2290
      -------------------------------------------------------------
                  HL-Gap            0.0000943 Eh            0.0026 eV

Wiberg/Mayer (AO) data.
largest (>0.10) Wiberg bond orders for each atom

     #   Z sym  total        # sym  WBO       # sym  WBO       # sym  WBO
 ---------------------------------------------------------------------------
     1  29 Cu   2.185 --    37 N    0.505     7 N    0.505    25 N    0.502
                            18 N    0.502
     2   6 C    3.927 --    36 C    1.360     3 C    1.360    38 H    0.971
     3   6 C    3.920 --     2 C    1.360     7 N    1.230     4 C    1.172
     4   6 C    3.955 --     5 C    1.653     3 C    1.172    39 H    0.976
     5   6 C    3.958 --     4 C    1.653     6 C    1.174    40 H    0.974
     6   6 C    3.913 --     8 C    1.319     7 N    1.239     5 C    1.174
     7   7 N    3.242 --     6 C    1.239     3 C    1.230     1 Cu   0.505
     8   6 C    3.935 --    15 C    1.326     6 C    1.319     9 C    1.025
     9   6 C    3.988 --    10 C    1.768    14 C    1.097     8 C    1.025
    10   6 C    3.971 --     9 C    1.768    11 C    1.013    41 H    0.972
    11   6 C    3.961 --    10 C    1.013    42 H    0.976    43 H    0.966
                            12 N    0.949
    12   7 N    3.247 --    13 C    1.160    11 C    0.949    44 H    0.928
                            14 C    0.127
    13   6 C    3.958 --    14 C    1.693    12 N    1.160    45 H    0.971
    14   6 C    3.968 --    13 C    1.693     9 C    1.097    46 H    0.974
                            12 N    0.127
    15   6 C    3.907 --     8 C    1.326    18 N    1.221    16 C    1.181
    16   6 C    3.955 --    17 C    1.642    15 C    1.181    47 H    0.972
    17   6 C    3.957 --    16 C    1.642    19 C    1.187    48 H    0.974
    18   7 N    3.247 --    19 C    1.257    15 C    1.221     1 Cu   0.502
    19   6 C    3.897 --    20 C    1.258    18 N    1.257    17 C    1.187
    20   6 C    3.937 --    21 C    1.258    19 C    1.258   120 C    1.189
    21   6 C    3.897 --    20 C    1.258    25 N    1.257    22 C    1.187
    22   6 C    3.957 --    23 C    1.641    21 C    1.187    49 H    0.974
    23   6 C    3.954 --    22 C    1.641    24 C    1.181    50 H    0.973
    24   6 C    3.907 --    26 C    1.326    25 N    1.221    23 C    1.181
    25   7 N    3.247 --    21 C    1.257    24 C    1.221     1 Cu   0.502
    26   6 C    3.935 --    24 C    1.326    33 C    1.318    27 C    1.025
    27   6 C    3.988 --    28 C    1.768    32 C    1.098    26 C    1.025
    28   6 C    3.971 --    27 C    1.768    29 C    1.013    51 H    0.972
    29   6 C    3.961 --    28 C    1.013    52 H    0.976    53 H    0.967
                            30 N    0.949
    30   7 N    3.247 --    31 C    1.160    29 C    0.949    54 H    0.928
                            32 C    0.127
    31   6 C    3.958 --    32 C    1.692    30 N    1.160    55 H    0.971
    32   6 C    3.968 --    31 C    1.692    27 C    1.098    56 H    0.974
                            30 N    0.127
    33   6 C    3.913 --    26 C    1.318    37 N    1.239    34 C    1.174
    34   6 C    3.958 --    35 C    1.653    33 C    1.174    57 H    0.974
    35   6 C    3.955 --    34 C    1.653    36 C    1.172    58 H    0.976
    36   6 C    3.920 --     2 C    1.360    37 N    1.230    35 C    1.172
    37   7 N    3.242 --    33 C    1.239    36 C    1.230     1 Cu   0.505
    38   1 H    1.002 --     2 C    0.971
    39   1 H    0.998 --     4 C    0.976
    40   1 H    1.007 --     5 C    0.974
    41   1 H    1.003 --    10 C    0.972
    42   1 H    1.019 --    11 C    0.976
    43   1 H    1.008 --    11 C    0.966
    44   1 H    0.964 --    12 N    0.928
    45   1 H    1.001 --    13 C    0.971
    46   1 H    1.003 --    14 C    0.974
    47   1 H    1.006 --    16 C    0.972
    48   1 H    1.002 --    17 C    0.974
    49   1 H    1.002 --    22 C    0.974
    50   1 H    1.006 --    23 C    0.973
    51   1 H    1.003 --    28 C    0.972
    52   1 H    1.019 --    29 C    0.976
    53   1 H    1.008 --    29 C    0.967
    54   1 H    0.964 --    30 N    0.928
    55   1 H    1.001 --    31 C    0.971
    56   1 H    1.003 --    32 C    0.974
    57   1 H    1.007 --    34 C    0.974
    58   1 H    0.998 --    35 C    0.976
    59  29 Cu   2.185 --    95 N    0.505    65 N    0.504    83 N    0.502
                            76 N    0.502
    60   6 C    3.927 --    94 C    1.360    61 C    1.360    96 H    0.971
    61   6 C    3.920 --    60 C    1.360    65 N    1.230    62 C    1.172
    62   6 C    3.955 --    63 C    1.653    61 C    1.172    97 H    0.976
    63   6 C    3.958 --    62 C    1.653    64 C    1.174    98 H    0.974
    64   6 C    3.913 --    66 C    1.319    65 N    1.239    63 C    1.174
    65   7 N    3.242 --    64 C    1.239    61 C    1.230    59 Cu   0.504
    66   6 C    3.935 --    73 C    1.326    64 C    1.319    67 C    1.025
    67   6 C    3.988 --    68 C    1.768    72 C    1.097    66 C    1.025
    68   6 C    3.971 --    67 C    1.768    69 C    1.013    99 H    0.972
    69   6 C    3.961 --    68 C    1.013   100 H    0.976   101 H    0.966
                            70 N    0.949
    70   7 N    3.247 --    71 C    1.160    69 C    0.949   102 H    0.928
                            72 C    0.127
    71   6 C    3.958 --    72 C    1.693    70 N    1.160   103 H    0.971
    72   6 C    3.968 --    71 C    1.693    67 C    1.097   104 H    0.974
                            70 N    0.127
    73   6 C    3.907 --    66 C    1.326    76 N    1.221    74 C    1.181
    74   6 C    3.955 --    75 C    1.642    73 C    1.181   105 H    0.972
    75   6 C    3.957 --    74 C    1.642    77 C    1.187   106 H    0.974
    76   7 N    3.247 --    77 C    1.257    73 C    1.221    59 Cu   0.502
    77   6 C    3.897 --    78 C    1.258    76 N    1.257    75 C    1.187
    78   6 C    3.937 --    79 C    1.258    77 C    1.258   122 C    1.189
    79   6 C    3.897 --    78 C    1.258    83 N    1.257    80 C    1.187
    80   6 C    3.957 --    81 C    1.641    79 C    1.187   107 H    0.974
    81   6 C    3.954 --    80 C    1.641    82 C    1.181   108 H    0.972
    82   6 C    3.907 --    84 C    1.326    83 N    1.221    81 C    1.181
    83   7 N    3.247 --    79 C    1.257    82 C    1.221    59 Cu   0.502
    84   6 C    3.935 --    82 C    1.326    91 C    1.318    85 C    1.025
    85   6 C    3.988 --    86 C    1.768    90 C    1.098    84 C    1.025
    86   6 C    3.971 --    85 C    1.768    87 C    1.013   109 H    0.972
    87   6 C    3.961 --    86 C    1.013   110 H    0.976   111 H    0.967
                            88 N    0.949
    88   7 N    3.247 --    89 C    1.160    87 C    0.949   112 H    0.928
                            90 C    0.127
    89   6 C    3.958 --    90 C    1.692    88 N    1.160   113 H    0.971
    90   6 C    3.968 --    89 C    1.692    85 C    1.098   114 H    0.974
                            88 N    0.127
    91   6 C    3.913 --    84 C    1.318    95 N    1.239    92 C    1.174
    92   6 C    3.958 --    93 C    1.653    91 C    1.174   115 H    0.974
    93   6 C    3.955 --    92 C    1.653    94 C    1.172   116 H    0.976
    94   6 C    3.920 --    60 C    1.360    95 N    1.230    93 C    1.172
    95   7 N    3.242 --    91 C    1.239    94 C    1.230    59 Cu   0.505
    96   1 H    1.002 --    60 C    0.971
    97   1 H    0.998 --    62 C    0.976
    98   1 H    1.007 --    63 C    0.974
    99   1 H    1.003 --    68 C    0.972
   100   1 H    1.019 --    69 C    0.976
   101   1 H    1.008 --    69 C    0.966
   102   1 H    0.964 --    70 N    0.928
   103   1 H    1.001 --    71 C    0.971
   104   1 H    1.003 --    72 C    0.974
   105   1 H    1.006 --    74 C    0.972
   106   1 H    1.002 --    75 C    0.974
   107   1 H    1.002 --    80 C    0.974
   108   1 H    1.006 --    81 C    0.972
   109   1 H    1.003 --    86 C    0.972
   110   1 H    1.019 --    87 C    0.976
   111   1 H    1.008 --    87 C    0.967
   112   1 H    0.964 --    88 N    0.928
   113   1 H    1.001 --    89 C    0.971
   114   1 H    1.003 --    90 C    0.974
   115   1 H    1.007 --    92 C    0.974
   116   1 H    0.998 --    93 C    0.976
   117   6 C    3.927 --   118 C    2.371   121 C    1.334   120 C    0.191
   118   6 C    3.927 --   117 C    2.371   119 C    1.334   122 C    0.191
   119   6 C    3.935 --   120 C    2.451   118 C    1.334
   120   6 C    3.891 --   119 C    2.451    20 C    1.189   117 C    0.191
   121   6 C    3.935 --   122 C    2.451   117 C    1.334
   122   6 C    3.891 --   121 C    2.451    78 C    1.189   118 C    0.191
 ---------------------------------------------------------------------------

           -------------------------------------------------
          | TOTAL ENERGY             -209.253203783267 Eh   |
          | GRADIENT NORM               0.000346821350 Eh/α |
          | HOMO-LUMO GAP               0.002565943590 eV   |
           -------------------------------------------------

 * finished run on 2022/07/30 at 06:00:24.742
