   * xtb version 6.5.1 (b24c23e) compiled by 'conda@728c89f4b128' on 2022-07-12
          program call               : xtb Zn_m-CP_C6_2.xyz --gfn 1 --opt -T 48

   ID    Z sym.   atoms
    1   30 Zn     1, 63
    2    6 C      2-6, 8-12, 15-20, 22-27, 29-35, 38-42, 64-68, 70-74, 77-82,
                  84-89, 91-97, 100-104, 125-130
    3    7 N      7, 21, 28, 43, 69, 83, 90, 105
    4    8 O      13, 14, 36, 37, 75, 76, 98, 99
    5    1 H      44-62, 106-124
########################################################################
[WARNING] Please study the warnings concerning your input carefully
-1- prog_main_parseArguments: Unknown option '-T' provided
########################################################################

          :  Hamiltonian                  GFN1-xTB          :
 * total energy  :  -241.3030079 Eh     change       -0.3026912E-09 Eh
 * total energy  :  -241.4465043 Eh     change       -0.1434964E+00 Eh
 * total energy  :  -241.5092250 Eh     change       -0.6272077E-01 Eh
 * total energy  :  -241.5270631 Eh     change       -0.1783807E-01 Eh
 * total energy  :  -241.5341782 Eh     change       -0.7115090E-02 Eh
 * total energy  :  -241.5375705 Eh     change       -0.3392280E-02 Eh
 * total energy  :  -241.5395315 Eh     change       -0.1961063E-02 Eh
 * total energy  :  -241.5406959 Eh     change       -0.1164312E-02 Eh
 * total energy  :  -241.5415976 Eh     change       -0.9017027E-03 Eh
 * total energy  :  -241.5424767 Eh     change       -0.8791869E-03 Eh
 * total energy  :  -241.5458527 Eh     change       -0.1331149E-04 Eh
 * total energy  :  -241.5458698 Eh     change       -0.1701949E-04 Eh
 * total energy  :  -241.5458821 Eh     change       -0.1230642E-04 Eh
 * total energy  :  -241.5458929 Eh     change       -0.1079956E-04 Eh
 * total energy  :  -241.5459066 Eh     change       -0.1367893E-04 Eh
 * total energy  :  -241.5459178 Eh     change       -0.1128918E-04 Eh
 * total energy  :  -241.5459173 Eh     change        0.5257644E-06 Eh
 * total energy  :  -241.5459253 Eh     change       -0.7956688E-05 Eh
 * total energy  :  -241.5459297 Eh     change       -0.4475283E-05 Eh
   *** GEOMETRY OPTIMIZATION CONVERGED AFTER 37 ITERATIONS ***

 final structure:
================
130
 xtb: 6.5.1 (b24c23e)
Zn          14.45057634101942       -0.00221421135491        0.01203298814816
C           11.04551261140386       -0.00100880420175        0.17194526205708
C           11.67125079891471        1.23318448512815        0.29791127905530
C           10.99363648992968        2.48902420553865        0.46199194235881
C           11.94922455097456        3.44715478271326        0.55062340753685
C           13.22421588670749        2.78616061716593        0.45302881855452
N           13.01973839002819        1.44753674630420        0.28935307673727
C           14.47362067065199        3.41635207685265        0.49827485046697
C           14.48166181471908        4.88536925596725        0.71327852933012
C           13.95059766575590        5.43129511819241        1.87853819608808
C           13.95446125403020        6.81095244970050        2.08017794399904
C           13.37438714514699        7.33030917198644        3.34369455219351
O           13.42239304409251        8.66669099665086        3.44681303880565
O           12.89890037576584        6.63980976757020        4.20861731337188
C           14.49117015036139        7.65771415179529        1.11029029864671
C           15.02076928074284        7.11701424019886       -0.05083569336131
C           15.01845660986213        5.74345905820506       -0.24952769685983
C           15.71399856163854        2.78283829274386        0.36523348795408
C           16.99276537941708        3.42954435444511        0.47195182994132
C           17.94030564202778        2.47375317805187        0.29515655855691
N           15.90949077312392        1.44652766479973        0.14005409622321
C           17.25156519977810        1.23367077198811        0.08825074172244
C           17.88457899523247       -0.00557576176025       -0.13740023791137
C           17.23276268216793       -1.24251166562538       -0.31629536715059
C           17.89868483602396       -2.48310923683473       -0.58432935148094
C           16.93742498916805       -3.43687485548498       -0.68146655467124
C           15.67373418468708       -2.78823925719615       -0.46399569629703
N           15.89041910121178       -1.45219982320924       -0.25679128502202
C           14.42558949878872       -3.42047205918984       -0.48155441594358
C           14.41022203566705       -4.89043309462535       -0.69153178798849
C           15.03192184993399       -5.74544507789095        0.22115176750408
C           15.01021046861591       -7.12033516699606        0.03112841412622
C           14.37020367240784       -7.65930543739440       -1.07223193174261
C           13.74685586937751       -6.81560894775212       -1.99303055307847
C           13.07146240105946       -7.43084026110303       -3.16237076715280
O           12.50038238289967       -6.53815483166046       -3.98468906236309
O           13.02534448326860       -8.61557181786805       -3.37537989049312
C           13.76729823071992       -5.43563394576030       -1.80102459074971
C           13.18646412785933       -2.78925595012813       -0.31755455173745
C           11.90796909623872       -3.44996524999229       -0.28855922110661
C           10.96564943710842       -2.49133960417702       -0.10806509465870
C           11.65607460433905       -1.23547684500224       -0.01395003490123
N           12.99876512047220       -1.45013538438246       -0.13798686420196
H            9.96125083060757       -0.00120868084950        0.22598030824926
H            9.92236808634885        2.61064666678804        0.49648938772726
H           11.80759335455637        4.51015633853742        0.66244043746915
H           13.54104380818070        4.78758173106164        2.64933544691438
H           13.02608790955036        8.92408524148650        4.29503528979943
H           14.49161001551912        8.72949414509104        1.26731908996448
H           15.43725219317141        7.76930445889180       -0.81012004251324
H           15.42245962936931        5.32877533033300       -1.16637163966703
H           17.14533971639700        4.47809286540500        0.67105981683338
H           19.01232757707517        2.58958884110190        0.31026002283119
H           18.96538303214608       -2.60040995223845       -0.69099774617652
H           17.06992450767976       -4.48548715776134       -0.89417914002160
H           15.52139006927777       -5.32706319132154        1.09355768854141
H           15.49323133698875       -7.77128281370580        0.75094096766744
H           14.34278371533535       -8.73078424070936       -1.23512730540575
H           12.08403558691282       -7.01875636518849       -4.71843652025846
H           13.29373644926257       -4.78223586260584       -2.52419445852484
H           11.75580684097945       -4.51327621699952       -0.38263467140579
H            9.89623457195633       -2.61304979508608       -0.03586725369002
Zn          30.49235277811620       -0.00233992819615        0.01190999425840
C           33.89730568408037       -0.05583247370973        0.16392867147356
C           33.27160947434946       -1.26357387705485       -0.11981885866343
C           33.94926794930262       -2.50433261851842       -0.37378212950109
C           32.99374003092293       -3.43892657918906       -0.60296241799773
C           31.71872175917185       -2.78213267290456       -0.48050412855600
N           31.92314883497585       -1.46332233506482       -0.19859616337099
C           30.46934964647983       -3.39246636771836       -0.64421132255347
C           30.46115235670937       -4.85128756532951       -0.91993235463519
C           30.99215362210500       -5.74734834901986        0.00366440627786
C           30.98781441964177       -7.11739963087029       -0.25531543882761
C           31.56804704690480       -8.02031170379535        0.76975524102960
O           31.52048042910537       -9.31725296599160        0.43132317673585
O           32.04332821972815       -7.64955737609913        1.81264853452224
C           30.45048750102420       -7.60172451607841       -1.44798819313713
C           29.92096300178686       -6.71196990820225       -2.36939166207426
C           29.92395258785517       -5.34862903673101       -2.10970684410133
C           29.22898911627302       -2.75003121575213       -0.56409399495508
C           27.95019262779155       -3.39591682375690       -0.67524422373498
C           27.00269554910465       -2.43472624082074       -0.53033811922196
N           29.03351075497492       -1.41342962128463       -0.34064000132783
C           27.69145521411688       -1.19503275730209       -0.32146770529212
C           27.05846028030727        0.05006215398148       -0.13066966953196
C           27.71024847357218        1.27748397064906        0.10476213029540
C           27.04423695398474        2.53748834783862        0.25719097615763
C           28.00551123605280        3.47077373540383        0.47629865912180
C           29.26916491404505        2.78662848924772        0.47055425290090
N           29.05251507740130        1.45611241809685        0.23039893379053
C           30.51727053709645        3.38993886509878        0.66057901081568
C           30.53259658296769        4.84802036514016        0.94145257871645
C           29.91065548540463        5.35870192168320        2.08291843400386
C           29.93228989524884        6.72041009865355        2.35158471007068
C           30.57245987107826        7.58969407799288        1.48438618479999
C           31.19592928585984        7.09237033555573        0.33885964619592
C           31.87124561200816        8.05529675336397       -0.56601904572074
O           32.44019243504955        7.47986449790398       -1.63574138947862
O           31.91917058301430        9.24447797983878       -0.37993080371040
C           31.17559459670126        5.72520018016733        0.07043240067033
C           31.75635217901056        2.73966592776545        0.61015477976376
C           33.03476738781711        3.35465745232603        0.85375565388631
C           33.97708911019332        2.38954931586199        0.71195196179159
C           33.28673353090529        1.17178029037309        0.39072418060026
N           31.94408825168349        1.41524652058837        0.34292687045818
H           34.98154588944819       -0.07334296925987        0.21552114449940
H           35.02052809441594       -2.63065348090733       -0.38015687173873
H           33.13547626420149       -4.48030693887804       -0.84373350843044
H           31.40203098853185       -5.39011682821330        0.94207614970712
H           31.91691715349767       -9.83711387307038        1.14922047084440
H           30.44941926256471       -8.66618742280597       -1.64869652168251
H           29.50397942149334       -7.08109331630753       -3.29962492585487
H           29.52013816681720       -4.65769459022068       -2.84136675438713
H           27.79749333718365       -4.45192839825299       -0.82981915765516
H           25.93067802800584       -2.54898181070195       -0.55459885466051
H           25.97754787174056        2.68319048775217        0.19447636887992
H           27.87303054654446        4.53142616509655        0.61715903251649
H           29.42108086798108        4.67871386025441        2.77114419084339
H           29.44904905724095        7.10108071654976        3.24419057823212
H           30.59978928019739        8.65573591536528        1.67974093278760
H           32.85672443821503        8.17344081022802       -2.17253940690452
H           31.64935066790694        5.34329982673261       -0.82615989200054
H           33.18683658156000        4.39043102926709        1.11198487985185
H           35.04645414494092        2.48096464431805        0.82045038270964
C           23.08558609735500        0.04428751531678       -0.20956685310117
C           21.85735553572960        0.02528758125436       -0.21236312184326
C           20.51308362713993        0.00851309287996       -0.20327741322975
C           19.28929029316744       -0.00415190405669       -0.18147745392260
C           24.42985273194758        0.05748688625879       -0.19446640600568
C           25.65367283349269        0.06303342850933       -0.16941833425887

          :  Hamiltonian                  GFN1-xTB          :
         :: total energy            -241.545929750744 Eh    ::
         :: gradient norm              0.000635224100 Eh/a0 ::
         :: HOMO-LUMO gap              1.111945555451 eV    ::
         :: SCC energy              -245.129222806630 Eh    ::
         :: repulsion energy           3.697469844444 Eh    ::

    * Orbital Energies and Occupations

         #    Occupation            Energy/Eh            Energy/eV
      -------------------------------------------------------------
         1        2.0000           -0.8324089             -22.6510
       ...           ...                  ...                  ...
       201        2.0000           -0.4272151             -11.6251
       202        2.0000           -0.4272093             -11.6250
       203        2.0000           -0.4266722             -11.6103
       204        2.0000           -0.4265805             -11.6078
       205        2.0000           -0.4263951             -11.6028
       206        2.0000           -0.4263633             -11.6019
       207        2.0000           -0.4261897             -11.5972
       208        2.0000           -0.4205733             -11.4444
       209        2.0000           -0.4149042             -11.2901
       210        2.0000           -0.3989622             -10.8563
       211        2.0000           -0.3989617             -10.8563
       212        2.0000           -0.3930164             -10.6945
       213        2.0000           -0.3824257             -10.4063 (HOMO)
       214                         -0.3415624              -9.2944 (LUMO)
       215                         -0.3325770              -9.0499
       216                         -0.3325745              -9.0498
       217                         -0.3298151              -8.9747
       218                         -0.3106973              -8.4545
       219                         -0.3102996              -8.4437
       220                         -0.3094894              -8.4216
       221                         -0.3094504              -8.4206
       222                         -0.3021016              -8.2206
       223                         -0.2956349              -8.0446
       224                         -0.2864572              -7.7949
       ...                                ...                  ...
       444                          1.5774044              42.9234
      -------------------------------------------------------------
                  HL-Gap            0.0408632 Eh            1.1119 eV

Wiberg/Mayer (AO) data.
largest (>0.10) Wiberg bond orders for each atom

     #   Z sym  total        # sym  WBO       # sym  WBO       # sym  WBO
 ---------------------------------------------------------------------------
     1  30 Zn   1.994 --     7 N    0.460    43 N    0.460    21 N    0.455
                            28 N    0.454
     2   6 C    3.928 --     3 C    1.358    42 C    1.357    44 H    0.971
     3   6 C    3.921 --     2 C    1.358     7 N    1.233     4 C    1.169
     4   6 C    3.961 --     5 C    1.661     3 C    1.169    45 H    0.975
     5   6 C    3.963 --     4 C    1.661     6 C    1.170    46 H    0.973
     6   6 C    3.919 --     8 C    1.315     7 N    1.245     5 C    1.170
     7   7 N    3.294 --     6 C    1.245     3 C    1.233     1 Zn   0.460
     8   6 C    3.932 --    18 C    1.323     6 C    1.315     9 C    1.027
     9   6 C    3.988 --    10 C    1.408    17 C    1.388     8 C    1.027
                            15 C    0.102
    10   6 C    3.984 --     9 C    1.408    11 C    1.396    47 H    0.968
                            16 C    0.104
    11   6 C    3.988 --    10 C    1.396    15 C    1.390    12 C    1.006
    12   6 C    3.836 --    14 O    1.692    13 O    1.089    11 C    1.006
    13   8 O    2.098 --    12 C    1.089    48 H    0.838    14 O    0.129
    14   8 O    1.961 --    12 C    1.692    13 O    0.129
    15   6 C    3.987 --    16 C    1.448    11 C    1.390    49 H    0.971
                             9 C    0.102
    16   6 C    3.994 --    15 C    1.448    17 C    1.441    50 H    0.972
                            10 C    0.104
    17   6 C    3.987 --    16 C    1.441     9 C    1.388    51 H    0.973
    18   6 C    3.913 --     8 C    1.323    21 N    1.226    19 C    1.178
    19   6 C    3.959 --    20 C    1.646    18 C    1.178    52 H    0.973
    20   6 C    3.962 --    19 C    1.646    22 C    1.186    53 H    0.974
    21   7 N    3.297 --    22 C    1.263    18 C    1.226     1 Zn   0.455
    22   6 C    3.901 --    21 N    1.263    23 C    1.253    20 C    1.186
    23   6 C    3.939 --    24 C    1.254    22 C    1.253   128 C    1.192
    24   6 C    3.901 --    28 N    1.263    23 C    1.254    25 C    1.186
    25   6 C    3.962 --    26 C    1.646    24 C    1.186    54 H    0.974
    26   6 C    3.959 --    25 C    1.646    27 C    1.179    55 H    0.973
    27   6 C    3.914 --    29 C    1.323    28 N    1.226    26 C    1.179
    28   7 N    3.296 --    24 C    1.263    27 C    1.226     1 Zn   0.454
    29   6 C    3.932 --    27 C    1.323    39 C    1.314    30 C    1.027
    30   6 C    3.988 --    38 C    1.405    31 C    1.389    29 C    1.027
                            33 C    0.102
    31   6 C    3.987 --    32 C    1.439    30 C    1.389    56 H    0.973
    32   6 C    3.994 --    33 C    1.451    31 C    1.439    57 H    0.972
                            38 C    0.104
    33   6 C    3.985 --    32 C    1.451    34 C    1.387    58 H    0.969
                            30 C    0.102
    34   6 C    3.988 --    38 C    1.399    33 C    1.387    35 C    1.006
    35   6 C    3.835 --    37 O    1.691    36 O    1.089    34 C    1.006
    36   8 O    2.098 --    35 C    1.089    59 H    0.838    37 O    0.129
    37   8 O    1.960 --    35 C    1.691    36 O    0.129
    38   6 C    3.985 --    30 C    1.405    34 C    1.399    60 H    0.969
                            32 C    0.104
    39   6 C    3.919 --    29 C    1.314    43 N    1.245    40 C    1.171
    40   6 C    3.963 --    41 C    1.660    39 C    1.171    61 H    0.973
    41   6 C    3.960 --    40 C    1.660    42 C    1.170    62 H    0.975
    42   6 C    3.921 --     2 C    1.357    43 N    1.233    41 C    1.170
    43   7 N    3.294 --    39 C    1.245    42 C    1.233     1 Zn   0.460
    44   1 H    1.001 --     2 C    0.971
    45   1 H    0.998 --     4 C    0.975
    46   1 H    1.004 --     5 C    0.973
    47   1 H    1.007 --    10 C    0.968
    48   1 H    0.873 --    13 O    0.838
    49   1 H    1.005 --    15 C    0.971
    50   1 H    1.002 --    16 C    0.972
    51   1 H    1.005 --    17 C    0.973
    52   1 H    1.004 --    19 C    0.973
    53   1 H    1.002 --    20 C    0.974
    54   1 H    1.002 --    25 C    0.974
    55   1 H    1.004 --    26 C    0.973
    56   1 H    1.005 --    31 C    0.973
    57   1 H    1.002 --    32 C    0.972
    58   1 H    1.005 --    33 C    0.969
    59   1 H    0.873 --    36 O    0.838
    60   1 H    1.008 --    38 C    0.969
    61   1 H    1.004 --    40 C    0.973
    62   1 H    0.998 --    41 C    0.975
    63  30 Zn   1.994 --    69 N    0.460   105 N    0.460    83 N    0.455
                            90 N    0.454
    64   6 C    3.928 --    65 C    1.358   104 C    1.357   106 H    0.971
    65   6 C    3.921 --    64 C    1.358    69 N    1.233    66 C    1.169
    66   6 C    3.961 --    67 C    1.661    65 C    1.169   107 H    0.975
    67   6 C    3.963 --    66 C    1.661    68 C    1.170   108 H    0.973
    68   6 C    3.919 --    70 C    1.315    69 N    1.245    67 C    1.170
    69   7 N    3.294 --    68 C    1.245    65 C    1.233    63 Zn   0.460
    70   6 C    3.932 --    80 C    1.323    68 C    1.315    71 C    1.027
    71   6 C    3.988 --    72 C    1.408    79 C    1.388    70 C    1.027
                            77 C    0.102
    72   6 C    3.984 --    71 C    1.408    73 C    1.396   109 H    0.968
                            78 C    0.104
    73   6 C    3.988 --    72 C    1.396    77 C    1.390    74 C    1.006
    74   6 C    3.836 --    76 O    1.692    75 O    1.089    73 C    1.006
    75   8 O    2.098 --    74 C    1.089   110 H    0.838    76 O    0.129
    76   8 O    1.961 --    74 C    1.692    75 O    0.129
    77   6 C    3.987 --    78 C    1.448    73 C    1.390   111 H    0.971
                            71 C    0.102
    78   6 C    3.994 --    77 C    1.448    79 C    1.441   112 H    0.972
                            72 C    0.104
    79   6 C    3.987 --    78 C    1.441    71 C    1.388   113 H    0.973
    80   6 C    3.913 --    70 C    1.323    83 N    1.226    81 C    1.178
    81   6 C    3.959 --    82 C    1.646    80 C    1.178   114 H    0.973
    82   6 C    3.962 --    81 C    1.646    84 C    1.186   115 H    0.974
    83   7 N    3.297 --    84 C    1.263    80 C    1.226    63 Zn   0.455
    84   6 C    3.901 --    83 N    1.263    85 C    1.253    82 C    1.186
    85   6 C    3.939 --    86 C    1.254    84 C    1.253   130 C    1.192
    86   6 C    3.901 --    90 N    1.263    85 C    1.254    87 C    1.186
    87   6 C    3.962 --    88 C    1.646    86 C    1.186   116 H    0.974
    88   6 C    3.959 --    87 C    1.646    89 C    1.179   117 H    0.973
    89   6 C    3.914 --    91 C    1.323    90 N    1.226    88 C    1.179
    90   7 N    3.296 --    86 C    1.263    89 C    1.226    63 Zn   0.454
    91   6 C    3.932 --    89 C    1.323   101 C    1.315    92 C    1.027
    92   6 C    3.988 --   100 C    1.405    93 C    1.389    91 C    1.027
                            95 C    0.102
    93   6 C    3.987 --    94 C    1.439    92 C    1.389   118 H    0.973
    94   6 C    3.994 --    95 C    1.451    93 C    1.439   119 H    0.972
                           100 C    0.104
    95   6 C    3.985 --    94 C    1.451    96 C    1.387   120 H    0.969
                            92 C    0.102
    96   6 C    3.988 --   100 C    1.399    95 C    1.387    97 C    1.006
    97   6 C    3.835 --    99 O    1.691    98 O    1.089    96 C    1.006
    98   8 O    2.098 --    97 C    1.089   121 H    0.838    99 O    0.129
    99   8 O    1.960 --    97 C    1.691    98 O    0.129
   100   6 C    3.985 --    92 C    1.405    96 C    1.399   122 H    0.969
                            94 C    0.104
   101   6 C    3.919 --    91 C    1.315   105 N    1.245   102 C    1.171
   102   6 C    3.963 --   103 C    1.660   101 C    1.171   123 H    0.973
   103   6 C    3.960 --   102 C    1.660   104 C    1.170   124 H    0.975
   104   6 C    3.921 --    64 C    1.357   105 N    1.233   103 C    1.170
   105   7 N    3.294 --   101 C    1.245   104 C    1.233    63 Zn   0.460
   106   1 H    1.001 --    64 C    0.971
   107   1 H    0.998 --    66 C    0.975
   108   1 H    1.004 --    67 C    0.973
   109   1 H    1.007 --    72 C    0.968
   110   1 H    0.873 --    75 O    0.838
   111   1 H    1.005 --    77 C    0.971
   112   1 H    1.002 --    78 C    0.972
   113   1 H    1.005 --    79 C    0.973
   114   1 H    1.004 --    81 C    0.973
   115   1 H    1.002 --    82 C    0.974
   116   1 H    1.002 --    87 C    0.974
   117   1 H    1.004 --    88 C    0.973
   118   1 H    1.005 --    93 C    0.973
   119   1 H    1.002 --    94 C    0.972
   120   1 H    1.005 --    95 C    0.969
   121   1 H    0.873 --    98 O    0.838
   122   1 H    1.008 --   100 C    0.969
   123   1 H    1.004 --   102 C    0.973
   124   1 H    0.998 --   103 C    0.975
   125   6 C    3.926 --   126 C    2.368   129 C    1.335   128 C    0.190
   126   6 C    3.926 --   125 C    2.368   127 C    1.335   130 C    0.190
   127   6 C    3.934 --   128 C    2.448   126 C    1.335
   128   6 C    3.891 --   127 C    2.448    23 C    1.192   125 C    0.190
   129   6 C    3.934 --   130 C    2.448   125 C    1.335
   130   6 C    3.891 --   129 C    2.448    85 C    1.192   126 C    0.190
 ---------------------------------------------------------------------------

           -------------------------------------------------
          | TOTAL ENERGY             -241.545929750744 Eh   |
          | GRADIENT NORM               0.000635224100 Eh/α |
          | HOMO-LUMO GAP               1.111945555451 eV   |
           -------------------------------------------------

 * finished run on 2022/07/30 at 10:28:12.835
