   * xtb version 6.5.1 (b24c23e) compiled by 'conda@728c89f4b128' on 2022-07-12
          program call               : xtb Ph_C2_2.xyz --gfn 1 --opt -T 48

   ID    Z sym.   atoms
    1    6 C      1-5, 7-10, 12-28, 31-36, 58-62, 64-67, 69-85, 88-93, 115,
                  116
    2    7 N      6, 11, 29, 30, 63, 68, 86, 87
    3    1 H      37-57, 94-114
########################################################################
[WARNING] Please study the warnings concerning your input carefully
-1- prog_main_parseArguments: Unknown option '-T' provided
########################################################################

          :  Hamiltonian                  GFN1-xTB          :
 * total energy  :  -187.3696176 Eh     change       -0.1950298E-09 Eh
 * total energy  :  -187.4667147 Eh     change       -0.9709719E-01 Eh
 * total energy  :  -187.5207383 Eh     change       -0.5402354E-01 Eh
 * total energy  :  -187.5339880 Eh     change       -0.1324972E-01 Eh
 * total energy  :  -187.5432941 Eh     change       -0.9306137E-02 Eh
 * total energy  :  -187.5481865 Eh     change       -0.4892366E-02 Eh
 * total energy  :  -187.5510840 Eh     change       -0.2897530E-02 Eh
 * total energy  :  -187.5528296 Eh     change       -0.1745607E-02 Eh
 * total energy  :  -187.5538870 Eh     change       -0.1057362E-02 Eh
 * total energy  :  -187.5546456 Eh     change       -0.7586013E-03 Eh
 * total energy  :  -187.5600206 Eh     change       -0.1681594E-04 Eh
 * total energy  :  -187.5600296 Eh     change       -0.8940314E-05 Eh
 * total energy  :  -187.5600434 Eh     change       -0.1380255E-04 Eh
 * total energy  :  -187.5600499 Eh     change       -0.6506947E-05 Eh
 * total energy  :  -187.5600581 Eh     change       -0.8258462E-05 Eh
 * total energy  :  -187.5600648 Eh     change       -0.6637509E-05 Eh
 * total energy  :  -187.5600676 Eh     change       -0.2837322E-05 Eh
 * total energy  :  -187.5600734 Eh     change       -0.5802454E-05 Eh
 * total energy  :  -187.5600778 Eh     change       -0.4406040E-05 Eh
   *** GEOMETRY OPTIMIZATION CONVERGED AFTER 51 ITERATIONS ***

 final structure:
================
116
 xtb: 6.5.1 (b24c23e)
C           11.89142303038010       -0.11253772346298        0.05034516609131
C           12.50648856317138       -1.19440809564244        0.66675584432715
C           11.86551395878341       -2.31862613849298        1.25869937374404
C           12.83446520437727       -3.13108134288047        1.77688460464401
C           14.09837829446727       -2.52285918590495        1.52924101858623
N           13.85022598943972       -1.36794799067652        0.84282552672679
C           15.36211397644443       -2.98454683647673        1.91223681003199
C           16.57328399482319       -2.35451513395056        1.61323468846627
C           17.85677139097346       -2.79742000014660        2.12565913974166
C           18.78184965245332       -1.96258164801037        1.60847607913269
N           16.73914047050634       -1.25767172384868        0.82406942817140
C           18.06585391816958       -1.01332236895487        0.78082553862542
C           18.71283810587040       -0.01489816928884        0.02332350122096
C           18.06681240187606        0.98167647662533       -0.73428352115357
C           18.69044991970969        1.96043657596958       -1.55074693105427
C           17.71580922746159        2.77309289873363       -2.05985363450529
C           16.46273743361408        2.31411822165129       -1.56901077236712
C           15.20196043542960        2.86149599964434       -1.83302773058885
C           15.17441326142176        4.11242612977304       -2.62902566851768
C           14.49707714015934        4.16497543978394       -3.84829460871644
C           14.47332872301956        5.33795945491908       -4.58751092141472
C           15.12091862637981        6.47285281346545       -4.11843115033209
C           15.79655629394708        6.42930971021734       -2.90643198859924
C           15.82649118157305        5.25692733854568       -2.16659543158165
C           13.98597969438574        2.31754841995718       -1.40782624258021
C           12.68641742206893        2.92421117212307       -1.65241250126206
C           11.76855681567381        2.08420265042421       -1.13295201804709
C           12.50682756753586        0.97376341134362       -0.55800990584129
N           13.83925687033075        1.15613744053981       -0.72709069341175
N           16.72448395984602        1.21861155022155       -0.78928336140375
C           15.40364488550479       -4.24148944342160        2.69923127367923
C           14.75637349594559       -4.33293362589358        3.93230322171004
C           14.79780268491911       -5.51256227426884        4.66042467861632
C           15.48019014494592       -6.61551761505927        4.16534373687074
C           16.12588601764313       -6.53307411509722        2.93906208282005
C           16.09105273948400       -5.35382185159465        2.21060089393840
H           10.80624671218134       -0.12525117678477        0.04973358344675
H           10.79880845703059       -2.47602521448496        1.27457859928833
H           12.69222432753040       -4.07307000253491        2.28127125945223
H           14.56732797048334       -0.73029732205942        0.51390039599871
H           18.00623984156590       -3.62129716898652        2.80455316425554
H           19.84651765203398       -1.95934993424535        1.77287351746891
H           19.75002819040562        2.02215845173005       -1.73303288970956
H           17.84892672542789        3.60807239351396       -2.72815687583331
H           14.00304742021676        3.27584651127376       -4.22385512259427
H           13.94755239052069        5.36557680482325       -5.53550724000222
H           15.09929932425475        7.38972868001941       -4.69650256355842
H           16.30173980479665        7.31351370059567       -2.53371291391725
H           16.34263978366631        5.22954578576403       -1.21323612571252
H           12.52374819128860        3.86954093639617       -2.14465607616630
H           10.69440800199247        2.18320672787492       -1.11692459474384
H           16.01396411156652        0.66491957032497       -0.32249000309473
H           14.23510053384074       -3.46848032506033        4.32854130403454
H           14.29542502585435       -5.57037425969811        5.61971712311584
H           15.50964417390803       -7.53752647471178        4.73486405901319
H           16.65919361335181       -7.39203052343203        2.54699006680134
H           16.58603192153827       -5.29454265182240        1.24766614650580
C           29.57217514645615        0.09358889692578       -0.08024013922624
C           28.95710613990054        1.11285332434638       -0.79543406335323
C           29.59807929015228        2.12807382400523       -1.55936588578543
C           28.62912588163958        2.94349786292482       -2.07286269882680
C           27.36521250631381        2.45991262912948       -1.62855355327848
N           27.61336750605363        1.34615229208210       -0.87720611277234
C           26.10147496200064        3.00334877696569       -1.88255792910924
C           24.89029699205496        2.46401468828336       -1.44045920803974
C           23.60679306516757        3.11641240566001       -1.62234784257652
C           22.68169406306247        2.29227198592315       -1.08831222051988
N           24.72444101144122        1.28220494522387       -0.78535007147341
C           23.39769435543480        1.13861786811566       -0.58315984690464
C           22.75075500577513        0.02723025555536       -0.00390669876316
C           23.39682533839589       -1.08315274556743        0.57412383872908
C           22.77319004356231       -2.23933212845616        1.11062308648914
C           23.74781147737339       -3.04656502575473        1.62831312349609
C           25.00087418238089       -2.40672037426238        1.42287757062793
C           26.26164344138902       -2.87915228921458        1.80517034469223
C           26.28917759209408       -4.13301059454000        2.59654898879685
C           26.96651285088128       -5.25802420087867        2.12355275253871
C           26.99026282775700       -6.42724921027218        2.86870121299412
C           26.34266642964023       -6.48755906134987        4.09523011827694
C           25.66701659469072       -5.37296955048906        4.57325875966559
C           25.63708553839990       -4.20343906423092        3.82892271251448
C           27.47762260800855       -2.26243140525066        1.49480272278740
C           28.77718366151338       -2.74260009577560        1.93898688212337
C           29.69504429438781       -1.91425505487108        1.40112204999683
C           28.95677341813239       -0.92028537516418        0.64239997631045
N           27.62434422439948       -1.15103834389009        0.73514279438539
N           24.73913168090985       -1.23390299836860        0.76514223774979
C           26.05995428097791        4.25159027350661       -2.68328303362201
C           26.70721074116442        5.40570581384340       -2.23959084151656
C           26.66578552842460        6.56771386258564       -2.99551490569817
C           25.98341776059493        6.59083650433153       -4.20427766731185
C           25.33774217853144        5.44670131360308       -4.65321544335635
C           25.37257386652749        4.28454514707987       -3.89777761934054
H           30.65735143395231        0.09846342223806       -0.09200091625119
H           30.66478544562325        2.20962937714645       -1.69491946178725
H           28.77136704814375        3.80174134470557       -2.70938982741882
H           26.89626649847786        0.77648610373078       -0.44100493161882
H           23.45732549662637        4.08203374976528       -2.07759029224639
H           21.61701750043019        2.43952612561101       -1.01526848377255
H           21.71361594368219       -2.43054299720758        1.08858315281879
H           23.61468931794894       -4.00736245010106        2.09808654242360
H           27.46054541846357       -5.21806563379703        1.15918930051566
H           27.51604886742855       -7.29630466005871        2.48897461753753
H           26.36428914207455       -7.40172578938089        4.67757612770128
H           25.16182317364697       -5.41339750947896        5.53195135187483
H           25.12092795319209       -3.32963429163209        4.21115256284962
H           28.93985089570040       -3.59129807722513        2.58370718512021
H           30.76919317024973       -1.94203010401311        1.49748983852138
H           25.44964944914021       -0.57539239468849        0.46375017429313
H           27.22846179495902        5.39501131204588       -1.28870058053297
H           27.16814066889027        7.45989443807060       -2.63827464204411
H           25.95396189528603        7.49944937771438       -4.79493530265563
H           24.80445485360976        5.45881738819154       -5.59735622251386
H           24.87761766616206        3.38844433537053       -4.25524626701595
C           20.12272125347262       -0.00148329841216        0.01474685796207
C           21.34087396080238        0.01235814998378        0.00260548556558

          :  Hamiltonian                  GFN1-xTB          :
         :: total energy            -187.560077813518 Eh    ::
         :: gradient norm              0.000485449573 Eh/a0 ::
         :: HOMO-LUMO gap              0.974916110753 eV    ::
         :: SCC energy              -190.688955541524 Eh    ::
         :: repulsion energy           3.228838652495 Eh    ::

    * Orbital Energies and Occupations

         #    Occupation            Energy/Eh            Energy/eV
      -------------------------------------------------------------
         1        2.0000           -0.8019102             -21.8211
       ...           ...                  ...                  ...
       161        2.0000           -0.4293880             -11.6842
       162        2.0000           -0.4209788             -11.4554
       163        2.0000           -0.4199090             -11.4263
       164        2.0000           -0.4173958             -11.3579
       165        2.0000           -0.4162861             -11.3277
       166        2.0000           -0.4154891             -11.3060
       167        2.0000           -0.4154572             -11.3052
       168        2.0000           -0.4127976             -11.2328
       169        2.0000           -0.4127822             -11.2324
       170        2.0000           -0.3973564             -10.8126
       171        2.0000           -0.3968304             -10.7983
       172        2.0000           -0.3887294             -10.5779
       173        2.0000           -0.3756341             -10.2215 (HOMO)
       174                         -0.3398065              -9.2466 (LUMO)
       175                         -0.3294610              -8.9651
       176                         -0.3293375              -8.9617
       177                         -0.3228515              -8.7852
       178                         -0.2971919              -8.0870
       179                         -0.2883866              -7.8474
       180                         -0.2645221              -7.1980
       181                         -0.2645203              -7.1980
       182                         -0.2641847              -7.1888
       183                         -0.2641837              -7.1888
       184                         -0.2631129              -7.1597
       ...                                ...                  ...
       380                          1.3327612              36.2663
      -------------------------------------------------------------
                  HL-Gap            0.0358275 Eh            0.9749 eV

Wiberg/Mayer (AO) data.
largest (>0.10) Wiberg bond orders for each atom

     #   Z sym  total        # sym  WBO       # sym  WBO       # sym  WBO
 ---------------------------------------------------------------------------
     1   6 C    3.924 --    28 C    1.365     2 C    1.347    37 H    0.971
     2   6 C    3.903 --     1 C    1.347     3 C    1.230     6 N    1.170
     3   6 C    3.953 --     4 C    1.595     2 C    1.230    38 H    0.977
     4   6 C    3.959 --     3 C    1.595     5 C    1.234    39 H    0.974
     5   6 C    3.897 --     7 C    1.304     4 C    1.234     6 N    1.176
     6   7 N    3.468 --     5 C    1.176     2 C    1.170    40 H    0.874
     7   6 C    3.939 --     8 C    1.332     5 C    1.304    31 C    1.030
     8   6 C    3.916 --     7 C    1.332    11 N    1.288     9 C    1.127
     9   6 C    3.965 --    10 C    1.706     8 C    1.127    41 H    0.974
    10   6 C    3.964 --     9 C    1.706    12 C    1.131    42 H    0.967
    11   7 N    3.020 --    12 C    1.342     8 C    1.288
    12   6 C    3.913 --    11 N    1.342    13 C    1.257    10 C    1.131
    13   6 C    3.937 --    12 C    1.257    14 C    1.253   115 C    1.184
    14   6 C    3.889 --    13 C    1.253    15 C    1.251    30 N    1.187
    15   6 C    3.959 --    16 C    1.580    14 C    1.251    43 H    0.968
    16   6 C    3.954 --    15 C    1.580    17 C    1.243    44 H    0.974
    17   6 C    3.899 --    18 C    1.306    16 C    1.243    30 N    1.166
    18   6 C    3.924 --    25 C    1.323    17 C    1.306    19 C    1.031
    19   6 C    3.988 --    20 C    1.393    24 C    1.393    18 C    1.031
                            22 C    0.107
    20   6 C    3.987 --    21 C    1.448    19 C    1.393    45 H    0.973
                            23 C    0.109
    21   6 C    3.995 --    20 C    1.448    22 C    1.437    46 H    0.973
                            24 C    0.109
    22   6 C    3.988 --    21 C    1.437    23 C    1.437    47 H    0.974
                            19 C    0.107
    23   6 C    3.995 --    24 C    1.448    22 C    1.437    48 H    0.973
                            20 C    0.109
    24   6 C    3.986 --    23 C    1.448    19 C    1.393    49 H    0.973
                            21 C    0.109
    25   6 C    3.930 --    18 C    1.323    29 N    1.315    26 C    1.118
    26   6 C    3.967 --    27 C    1.722    25 C    1.118    50 H    0.974
    27   6 C    3.966 --    26 C    1.722    28 C    1.117    51 H    0.976
    28   6 C    3.929 --     1 C    1.365    29 N    1.301    27 C    1.117
    29   7 N    3.009 --    25 C    1.315    28 C    1.301
    30   7 N    3.473 --    14 C    1.187    17 C    1.166    52 H    0.873
    31   6 C    3.988 --    32 C    1.395    36 C    1.393     7 C    1.030
                            34 C    0.107
    32   6 C    3.987 --    33 C    1.447    31 C    1.395    53 H    0.973
                            35 C    0.109
    33   6 C    3.995 --    32 C    1.447    34 C    1.438    54 H    0.973
                            36 C    0.109
    34   6 C    3.989 --    33 C    1.438    35 C    1.437    55 H    0.974
                            31 C    0.107
    35   6 C    3.995 --    36 C    1.448    34 C    1.437    56 H    0.973
                            32 C    0.109
    36   6 C    3.988 --    35 C    1.448    31 C    1.393    57 H    0.973
                            33 C    0.109
    37   1 H    1.002 --     1 C    0.971
    38   1 H    0.998 --     3 C    0.977
    39   1 H    1.005 --     4 C    0.974
    40   1 H    0.986 --     6 N    0.874
    41   1 H    1.005 --     9 C    0.974
    42   1 H    1.007 --    10 C    0.967
    43   1 H    1.007 --    15 C    0.968
    44   1 H    1.005 --    16 C    0.974
    45   1 H    1.005 --    20 C    0.973
    46   1 H    1.003 --    21 C    0.973
    47   1 H    1.003 --    22 C    0.974
    48   1 H    1.003 --    23 C    0.973
    49   1 H    1.005 --    24 C    0.973
    50   1 H    1.005 --    26 C    0.974
    51   1 H    0.998 --    27 C    0.976
    52   1 H    0.988 --    30 N    0.873
    53   1 H    1.005 --    32 C    0.973
    54   1 H    1.003 --    33 C    0.973
    55   1 H    1.003 --    34 C    0.974
    56   1 H    1.003 --    35 C    0.973
    57   1 H    1.005 --    36 C    0.973
    58   6 C    3.924 --    85 C    1.365    59 C    1.347    94 H    0.971
    59   6 C    3.903 --    58 C    1.347    60 C    1.230    63 N    1.170
    60   6 C    3.953 --    61 C    1.595    59 C    1.230    95 H    0.977
    61   6 C    3.959 --    60 C    1.595    62 C    1.234    96 H    0.974
    62   6 C    3.897 --    64 C    1.304    61 C    1.234    63 N    1.176
    63   7 N    3.468 --    62 C    1.176    59 C    1.170    97 H    0.874
    64   6 C    3.939 --    65 C    1.332    62 C    1.304    88 C    1.030
    65   6 C    3.916 --    64 C    1.332    68 N    1.288    66 C    1.127
    66   6 C    3.965 --    67 C    1.706    65 C    1.127    98 H    0.974
    67   6 C    3.964 --    66 C    1.706    69 C    1.131    99 H    0.967
    68   7 N    3.020 --    69 C    1.342    65 C    1.288
    69   6 C    3.913 --    68 N    1.342    70 C    1.257    67 C    1.131
    70   6 C    3.937 --    69 C    1.257    71 C    1.253   116 C    1.184
    71   6 C    3.889 --    70 C    1.253    72 C    1.251    87 N    1.187
    72   6 C    3.959 --    73 C    1.580    71 C    1.251   100 H    0.968
    73   6 C    3.955 --    72 C    1.580    74 C    1.243   101 H    0.974
    74   6 C    3.899 --    75 C    1.306    73 C    1.243    87 N    1.166
    75   6 C    3.924 --    82 C    1.323    74 C    1.306    76 C    1.031
    76   6 C    3.988 --    77 C    1.393    81 C    1.393    75 C    1.031
                            79 C    0.107
    77   6 C    3.987 --    78 C    1.448    76 C    1.393   102 H    0.973
                            80 C    0.109
    78   6 C    3.995 --    77 C    1.448    79 C    1.437   103 H    0.973
                            81 C    0.109
    79   6 C    3.988 --    78 C    1.437    80 C    1.437   104 H    0.974
                            76 C    0.107
    80   6 C    3.995 --    81 C    1.448    79 C    1.437   105 H    0.973
                            77 C    0.109
    81   6 C    3.986 --    80 C    1.448    76 C    1.393   106 H    0.973
                            78 C    0.109
    82   6 C    3.930 --    75 C    1.323    86 N    1.316    83 C    1.118
    83   6 C    3.967 --    84 C    1.722    82 C    1.118   107 H    0.974
    84   6 C    3.966 --    83 C    1.722    85 C    1.117   108 H    0.976
    85   6 C    3.929 --    58 C    1.365    86 N    1.301    84 C    1.117
    86   7 N    3.009 --    82 C    1.316    85 C    1.301
    87   7 N    3.473 --    71 C    1.187    74 C    1.166   109 H    0.873
    88   6 C    3.988 --    89 C    1.395    93 C    1.393    64 C    1.030
                            91 C    0.107
    89   6 C    3.987 --    90 C    1.447    88 C    1.395   110 H    0.973
                            92 C    0.109
    90   6 C    3.995 --    89 C    1.447    91 C    1.438   111 H    0.973
                            93 C    0.109
    91   6 C    3.989 --    90 C    1.438    92 C    1.437   112 H    0.974
                            88 C    0.107
    92   6 C    3.995 --    93 C    1.448    91 C    1.437   113 H    0.973
                            89 C    0.109
    93   6 C    3.988 --    92 C    1.448    88 C    1.393   114 H    0.973
                            90 C    0.109
    94   1 H    1.002 --    58 C    0.971
    95   1 H    0.998 --    60 C    0.977
    96   1 H    1.005 --    61 C    0.974
    97   1 H    0.986 --    63 N    0.874
    98   1 H    1.005 --    66 C    0.974
    99   1 H    1.007 --    67 C    0.967
   100   1 H    1.007 --    72 C    0.968
   101   1 H    1.005 --    73 C    0.974
   102   1 H    1.005 --    77 C    0.973
   103   1 H    1.003 --    78 C    0.973
   104   1 H    1.003 --    79 C    0.974
   105   1 H    1.003 --    80 C    0.973
   106   1 H    1.005 --    81 C    0.973
   107   1 H    1.005 --    83 C    0.974
   108   1 H    0.998 --    84 C    0.976
   109   1 H    0.988 --    87 N    0.873
   110   1 H    1.005 --    89 C    0.973
   111   1 H    1.003 --    90 C    0.973
   112   1 H    1.003 --    91 C    0.974
   113   1 H    1.003 --    92 C    0.973
   114   1 H    1.005 --    93 C    0.973
   115   6 C    3.933 --   116 C    2.572    13 C    1.184
   116   6 C    3.933 --   115 C    2.572    70 C    1.184
 ---------------------------------------------------------------------------

           -------------------------------------------------
          | TOTAL ENERGY             -187.560077813518 Eh   |
          | GRADIENT NORM               0.000485449573 Eh/α |
          | HOMO-LUMO GAP               0.974916110753 eV   |
           -------------------------------------------------

 * finished run on 2022/07/29 at 14:00:47.387
