   * xtb version 6.5.1 (b24c23e) compiled by 'conda@728c89f4b128' on 2022-07-12
          program call               : xtb Ni_PhCHO_C8_2.xyz --gfn 1 --opt -T 48

   ID    Z sym.   atoms
    1   28 Ni     1, 61
    2    6 C      2-6, 8-13, 15-19, 21-26, 28-33, 35-40, 62-66, 68-73, 75-79,
                  81-86, 88-93, 95-100, 121-128
    3    7 N      7, 20, 27, 41, 67, 80, 87, 101
    4    8 O      14, 34, 74, 94
    5    1 H      42-60, 102-120
########################################################################
[WARNING] Please study the warnings concerning your input carefully
-1- prog_main_parseArguments: Unknown option '-T' provided
########################################################################

          :  Hamiltonian                  GFN1-xTB          :
 * total energy  :  -232.9295684 Eh     change       -0.1049898E-08 Eh
 * total energy  :  -233.3188666 Eh     change       -0.3892982E+00 Eh
 * total energy  :  -233.4068768 Eh     change       -0.8801019E-01 Eh
 * total energy  :  -233.4401049 Eh     change       -0.3322811E-01 Eh
 * total energy  :  -233.4526231 Eh     change       -0.1251814E-01 Eh
 * total energy  :  -233.4600521 Eh     change       -0.7429079E-02 Eh
 * total energy  :  -233.4649443 Eh     change       -0.4892136E-02 Eh
 * total energy  :  -233.4670137 Eh     change       -0.2069438E-02 Eh
 * total energy  :  -233.4694621 Eh     change       -0.2448420E-02 Eh
 * total energy  :  -233.4707811 Eh     change       -0.1318921E-02 Eh
 * total energy  :  -233.4747513 Eh     change       -0.4236818E-04 Eh
 * total energy  :  -233.4747753 Eh     change       -0.2402016E-04 Eh
 * total energy  :  -233.4748033 Eh     change       -0.2798084E-04 Eh
 * total energy  :  -233.4748248 Eh     change       -0.2147130E-04 Eh
 * total energy  :  -233.4748411 Eh     change       -0.1627165E-04 Eh
 * total energy  :  -233.4748540 Eh     change       -0.1292735E-04 Eh
 * total energy  :  -233.4748572 Eh     change       -0.3214233E-05 Eh
 * total energy  :  -233.4748625 Eh     change       -0.5253153E-05 Eh
 * total energy  :  -233.4748674 Eh     change       -0.4889359E-05 Eh
   *** GEOMETRY OPTIMIZATION CONVERGED AFTER 39 ITERATIONS ***

 final structure:
================
128
 xtb: 6.5.1 (b24c23e)
Ni          13.29048638817814        0.02313179050991       -0.07091765222756
C            9.89925692828771        0.08543655812988       -0.19337318812056
C           10.56661304317411        1.29102374122815       -0.13925842976482
C            9.90184662495399        2.55808450858207       -0.10928628055735
C           10.86155619824137        3.49530991637058        0.06834274395958
C           12.11456557184501        2.80065300939507        0.12913751406945
N           11.92412595359549        1.44910031801604       -0.01247714604536
C           13.33192732639692        3.41981460754704        0.38120531050270
C           13.35220692461327        4.88608731332604        0.59877580095328
C           13.72244922683030        5.40889024758579        1.84096887076136
C           13.74058668321245        6.77542955458060        2.04423455298240
C           13.39411393004023        7.64944240931769        1.00851866705307
C           13.42456520093014        9.10393868156620        1.24929792782800
O           13.73381475065828        9.60149403797468        2.30144297433812
C           13.02683555004479        7.12727312288316       -0.23390215166835
C           13.00407451156150        5.75845979555603       -0.43544255810306
C           14.53474637273609        2.72796573311365        0.42597118218704
C           15.80477517147775        3.36001350989926        0.62003050991730
C           16.74673061589153        2.39839896042683        0.47230852681797
N           14.69851987304681        1.38367009364247        0.17808516803866
C           16.05128900288945        1.18330900068485        0.18960271198899
C           16.70411408898939       -0.02143455390185       -0.08660939527865
C           16.01651979432522       -1.21582888618009       -0.31824885130409
C           16.67488139448280       -2.45405673081368       -0.58820483711870
C           15.70869107938256       -3.40085784242899       -0.65732585046077
C           14.46182732573394       -2.73648866587510       -0.42627116092630
N           14.66073615145666       -1.38604400003388       -0.25044547674671
C           13.23702364252791       -3.39003247305858       -0.38078603636901
C           13.21706392379098       -4.86563977365436       -0.50667839333149
C           12.55486633695863       -5.47306694728993       -1.57721423949471
C           12.53797060704829       -6.85097530886450       -1.69987641860397
C           13.17995430629682       -7.64972805926010       -0.75052003434688
C           13.17524276687118       -9.12026711117033       -0.85825412912584
O           13.71439408543810       -9.85102312483628       -0.06730391386262
C           13.84104084427516       -7.04212282674689        0.32205331843073
C           13.86182069636523       -5.66579924684590        0.44125618684131
C           12.03008601679305       -2.71626805633725       -0.24268804575778
C           10.75307620290921       -3.36575517745971       -0.18145726216198
C            9.81765203120426       -2.38822993583082       -0.15079370955725
C           10.52398983346505       -1.14390616335886       -0.17096773759093
N           11.88015969554509       -1.35294421134687       -0.19651851674924
H            8.81645560701702        0.10499721757026       -0.23342562152456
H            8.83527293397686        2.69053836404687       -0.19643383703276
H           10.74302046364913        4.56234724107022        0.16347434578434
H           13.98216690500972        4.73293799881018        2.64779203335483
H           14.02183065046165        7.18994489765297        3.00635787467557
H           13.13683569428306        9.71769106497119        0.36925121480810
H           12.76042902187693        7.79851475447894       -1.04389237033967
H           12.73046013482608        5.35587897650762       -1.40420829029303
H           15.94795537623942        4.40852108181692        0.82352971785301
H           17.81877054094124        2.48924275770986        0.53869209477554
H           17.74052468786001       -2.56807581716808       -0.70395730885919
H           15.81950013750609       -4.45429906687305       -0.85551895331767
H           12.06713349436194       -4.85511756199492       -2.32270498538022
H           12.02612420108403       -7.31407488163289       -2.53723834577676
H           12.62731260582776       -9.51049258559256       -1.74243620968485
H           14.33423778707296       -7.67043845350661        1.05594437760950
H           14.36568726207362       -5.19790436570192        1.27942248556610
H           10.60470275518292       -4.43313354939016       -0.16145320405802
H            8.74407506504120       -2.48078536117429       -0.11065748286154
Ni          31.86001742673696       -0.01550731113821       -0.07356250549022
C           35.25120325635873       -0.05892960884118       -0.20545430567064
C           34.58400094129993       -1.26009146597015       -0.32285428144432
C           35.24893451872719       -2.51846098866463       -0.47331744226300
C           34.28943760392183       -3.47159573925277       -0.42992164973916
C           33.03637422611162       -2.79283232622120       -0.27059317994719
N           33.22656368304848       -1.43483205711235       -0.21904274252873
C           31.81922648098419       -3.44181422678237       -0.10874580539153
C           31.79938756736160       -4.92414855532710       -0.10229624183704
C           31.43093052828574       -5.61894196736329        1.05307941902594
C           31.41375015702427       -7.00051787671736        1.05940511991504
C           31.75917772880621       -7.71764843842054       -0.09082480775528
C           31.72983049191393       -9.19161618536012       -0.05990721804555
O           31.42322300005814       -9.83441353325820        0.91117569251007
C           32.12440047812061       -7.02342858447969       -1.24660266749353
C           32.14636163349997       -5.63986377678594       -1.25085963968274
C           30.61624768839238       -2.76373216936778        0.03411206844553
C           29.34641791417624       -3.41724442140582        0.13660293382700
C           28.40420271364759       -2.44466041030630        0.12683871928107
N           30.45211838813046       -1.39790181410072       -0.02038586335420
C           29.09930485627081       -1.20152896575609        0.01942632617229
C           28.44634657915728        0.03023658029796       -0.08280403538396
C           29.13382837771321        1.24539349580387       -0.14260132710873
C           28.47528006559913        2.50932858762747       -0.23391046616813
C           29.44124586003997        3.45650353315048       -0.16700509302173
C           30.68821299360767        2.76624811827809       -0.03238134729576
N           30.48958641742679        1.40450367599409       -0.05083845540093
C           31.91284432735401        3.40692128737061        0.10618549835200
C           31.93228679241631        4.88542782018076        0.19213653830401
C           32.59345639134653        5.63970929265493       -0.78121497797592
C           32.60918115783314        7.02106762308301       -0.70637593310015
C           31.96711943137571        7.67589776805948        0.34736387230492
C           31.96995939637419        9.14682218786616        0.44981768438903
O           31.43044847831329        9.75697372765029        1.33692052013881
C           31.30744247384458        6.92111500937355        1.32295881142436
C           31.28774735580798        5.54183628126956        1.24487053787938
C           33.11994923749586        2.72067702978110        0.14663394012097
C           34.39688021670219        3.35507170716157        0.29946191914621
C           35.33249830989050        2.38343201052366        0.18966537823158
C           34.62636884328506        1.15455850164642       -0.00767434663786
N           33.27016642675109        1.36477286956503       -0.00242437446510
H           36.33397867847335       -0.07241171432953       -0.24863083262314
H           36.31548067187609       -2.63701867145732       -0.57885868293110
H           34.40809217099968       -4.54132549039716       -0.48709706752710
H           31.17192815367874       -5.06509885673709        1.94834461117711
H           31.13400717819432       -7.54819332307835        1.95293427277951
H           32.01739808895788       -9.67341459070449       -1.01869628383530
H           32.38988075990630       -7.57212133484136       -2.14441393315930
H           32.41851146437725       -5.10300692164868       -2.15261476479020
H           29.20357678921533       -4.48405252942448        0.18937839632530
H           27.33220344335385       -2.54434768019961        0.17960341758236
H           27.40965781430831        2.63841503990993       -0.33285650160133
H           29.33033314391028        4.52742448753541       -0.21307195268168
H           33.08120529921904        5.13466573642596       -1.60738012548650
H           33.12004323469408        7.59915721157872       -1.46956637106448
H           32.51706359747825        9.65954205380561       -0.36998055638707
H           30.81432386706943        7.43808179464516        2.13917027847656
H           30.78481170686814        4.95885214632854        2.00809862944093
H           34.54509699507856        4.40867590724731        0.47170003902364
H           36.40608248827527        2.46955110465145        0.24215741876434
C           18.10882732325528       -0.03229019527441       -0.11240491744635
C           19.33278858250218       -0.03058358218751       -0.13384165030488
C           20.67594891903198       -0.02241436023308       -0.14769474064468
C           21.90616958805184       -0.00496139419450       -0.15446346275580
C           23.24451013088547        0.01202314961451       -0.15269382164945
C           24.47463020958289        0.03085008643859       -0.14254817151272
C           25.81772673798848        0.03831268295130       -0.12586266698982
C           27.04162655079185        0.04430503224081       -0.10691891915611

          :  Hamiltonian                  GFN1-xTB          :
         :: total energy            -233.474867358242 Eh    ::
         :: gradient norm              0.000655861117 Eh/a0 ::
         :: HOMO-LUMO gap              1.227291471655 eV    ::
         :: SCC energy              -237.165017005689 Eh    ::
         :: repulsion energy           3.803175200309 Eh    ::

    * Orbital Energies and Occupations

         #    Occupation            Energy/Eh            Energy/eV
      -------------------------------------------------------------
         1        2.0000           -0.7934408             -21.5906
       ...           ...                  ...                  ...
       201        2.0000           -0.4188713             -11.3981
       202        2.0000           -0.4110597             -11.1855
       203        2.0000           -0.4110269             -11.1846
       204        2.0000           -0.4105792             -11.1724
       205        2.0000           -0.4105741             -11.1723
       206        2.0000           -0.4097902             -11.1510
       207        2.0000           -0.4097863             -11.1509
       208        2.0000           -0.4087267             -11.1220
       209        2.0000           -0.4087222             -11.1219
       210        2.0000           -0.4086526             -11.1200
       211        2.0000           -0.4086494             -11.1199
       212        2.0000           -0.4059591             -11.0467
       213        2.0000           -0.3969223             -10.8008 (HOMO)
       214                         -0.3518202              -9.5735 (LUMO)
       215                         -0.3448573              -9.3840
       216                         -0.3448453              -9.3837
       217                         -0.3422344              -9.3127
       218                         -0.3410923              -9.2816
       219                         -0.3410769              -9.2812
       220                         -0.3286433              -8.9428
       221                         -0.3282518              -8.9322
       222                         -0.3238420              -8.8122
       223                         -0.3238238              -8.8117
       224                         -0.3123915              -8.5006
       ...                                ...                  ...
       446                          1.5959292              43.4274
      -------------------------------------------------------------
                  HL-Gap            0.0451021 Eh            1.2273 eV

Wiberg/Mayer (AO) data.
largest (>0.10) Wiberg bond orders for each atom

     #   Z sym  total        # sym  WBO       # sym  WBO       # sym  WBO
 ---------------------------------------------------------------------------
     1  28 Ni   3.009 --    41 N    0.663     7 N    0.663    20 N    0.661
                            27 N    0.661
     2   6 C    3.935 --     3 C    1.365    40 C    1.364    42 H    0.970
     3   6 C    3.922 --     2 C    1.365     7 N    1.213     4 C    1.174
     4   6 C    3.959 --     5 C    1.651     3 C    1.174    43 H    0.975
     5   6 C    3.963 --     4 C    1.651     6 C    1.176    44 H    0.972
     6   6 C    3.919 --     8 C    1.322     7 N    1.222     5 C    1.176
     7   7 N    3.402 --     6 C    1.222     3 C    1.213     1 Ni   0.663
     8   6 C    3.938 --    17 C    1.329     6 C    1.322     9 C    1.026
     9   6 C    3.986 --    16 C    1.386    10 C    1.383     8 C    1.026
    10   6 C    3.988 --    11 C    1.470     9 C    1.383    45 H    0.972
                            15 C    0.100
    11   6 C    3.988 --    10 C    1.470    12 C    1.371    46 H    0.968
                            16 C    0.101
    12   6 C    3.985 --    15 C    1.379    11 C    1.371    13 C    1.048
    13   6 C    3.864 --    14 O    1.809    12 C    1.048    47 H    0.942
    14   8 O    2.005 --    13 C    1.809
    15   6 C    3.993 --    16 C    1.464    12 C    1.379    48 H    0.971
                            10 C    0.100
    16   6 C    3.988 --    15 C    1.464     9 C    1.386    49 H    0.972
                            11 C    0.101
    17   6 C    3.914 --     8 C    1.329    20 N    1.206    18 C    1.182
    18   6 C    3.958 --    19 C    1.638    17 C    1.182    50 H    0.972
    19   6 C    3.961 --    18 C    1.638    21 C    1.190    51 H    0.973
    20   7 N    3.407 --    21 C    1.239    17 C    1.206     1 Ni   0.661
    21   6 C    3.901 --    22 C    1.262    20 N    1.239    19 C    1.190
    22   6 C    3.945 --    23 C    1.264    21 C    1.262   121 C    1.185
    23   6 C    3.902 --    22 C    1.264    27 N    1.237    24 C    1.191
    24   6 C    3.961 --    25 C    1.636    23 C    1.191    52 H    0.973
    25   6 C    3.958 --    24 C    1.636    26 C    1.183    53 H    0.973
    26   6 C    3.914 --    28 C    1.325    27 N    1.208    25 C    1.183
    27   7 N    3.406 --    23 C    1.237    26 C    1.208     1 Ni   0.661
    28   6 C    3.938 --    26 C    1.325    37 C    1.321    29 C    1.031
    29   6 C    3.986 --    30 C    1.383    36 C    1.381    28 C    1.031
    30   6 C    3.988 --    31 C    1.465    29 C    1.383    54 H    0.972
                            35 C    0.101
    31   6 C    3.993 --    30 C    1.465    32 C    1.378    55 H    0.971
    32   6 C    3.984 --    31 C    1.378    35 C    1.370    33 C    1.049
    33   6 C    3.864 --    34 O    1.809    32 C    1.049    56 H    0.942
    34   8 O    2.004 --    33 C    1.809
    35   6 C    3.988 --    36 C    1.470    32 C    1.370    57 H    0.968
                            30 C    0.101
    36   6 C    3.988 --    35 C    1.470    29 C    1.381    58 H    0.972
    37   6 C    3.919 --    28 C    1.321    41 N    1.222    38 C    1.176
    38   6 C    3.963 --    39 C    1.649    37 C    1.176    59 H    0.972
    39   6 C    3.959 --    38 C    1.649    40 C    1.175    60 H    0.975
    40   6 C    3.922 --     2 C    1.364    41 N    1.213    39 C    1.175
    41   7 N    3.402 --    37 C    1.222    40 C    1.213     1 Ni   0.663
    42   1 H    1.000 --     2 C    0.970
    43   1 H    0.997 --     4 C    0.975
    44   1 H    1.004 --     5 C    0.972
    45   1 H    1.003 --    10 C    0.972
    46   1 H    1.005 --    11 C    0.968
    47   1 H    1.010 --    13 C    0.942
    48   1 H    1.000 --    15 C    0.971
    49   1 H    1.003 --    16 C    0.972
    50   1 H    1.004 --    18 C    0.972
    51   1 H    1.001 --    19 C    0.973
    52   1 H    1.001 --    24 C    0.973
    53   1 H    1.003 --    25 C    0.973
    54   1 H    1.004 --    30 C    0.972
    55   1 H    1.000 --    31 C    0.971
    56   1 H    1.010 --    33 C    0.942
    57   1 H    1.005 --    35 C    0.968
    58   1 H    1.004 --    36 C    0.972
    59   1 H    1.004 --    38 C    0.972
    60   1 H    0.997 --    39 C    0.975
    61  28 Ni   3.009 --   101 N    0.663    67 N    0.663    87 N    0.661
                            80 N    0.661
    62   6 C    3.935 --    63 C    1.365   100 C    1.364   102 H    0.970
    63   6 C    3.922 --    62 C    1.365    67 N    1.213    64 C    1.174
    64   6 C    3.959 --    65 C    1.651    63 C    1.174   103 H    0.975
    65   6 C    3.963 --    64 C    1.651    66 C    1.176   104 H    0.972
    66   6 C    3.919 --    68 C    1.322    67 N    1.222    65 C    1.176
    67   7 N    3.402 --    66 C    1.222    63 C    1.213    61 Ni   0.663
    68   6 C    3.938 --    77 C    1.329    66 C    1.322    69 C    1.025
    69   6 C    3.986 --    76 C    1.386    70 C    1.383    68 C    1.025
    70   6 C    3.988 --    71 C    1.470    69 C    1.383   105 H    0.972
                            75 C    0.100
    71   6 C    3.988 --    70 C    1.470    72 C    1.371   106 H    0.968
                            76 C    0.101
    72   6 C    3.985 --    75 C    1.379    71 C    1.371    73 C    1.048
    73   6 C    3.864 --    74 O    1.809    72 C    1.048   107 H    0.942
    74   8 O    2.005 --    73 C    1.809
    75   6 C    3.993 --    76 C    1.464    72 C    1.379   108 H    0.971
                            70 C    0.100
    76   6 C    3.988 --    75 C    1.464    69 C    1.386   109 H    0.972
                            71 C    0.101
    77   6 C    3.914 --    68 C    1.329    80 N    1.206    78 C    1.182
    78   6 C    3.958 --    79 C    1.638    77 C    1.182   110 H    0.972
    79   6 C    3.961 --    78 C    1.638    81 C    1.190   111 H    0.973
    80   7 N    3.407 --    81 C    1.239    77 C    1.206    61 Ni   0.661
    81   6 C    3.901 --    82 C    1.262    80 N    1.239    79 C    1.190
    82   6 C    3.945 --    83 C    1.264    81 C    1.262   128 C    1.185
    83   6 C    3.902 --    82 C    1.264    87 N    1.237    84 C    1.191
    84   6 C    3.961 --    85 C    1.636    83 C    1.191   112 H    0.973
    85   6 C    3.958 --    84 C    1.636    86 C    1.183   113 H    0.973
    86   6 C    3.914 --    88 C    1.325    87 N    1.208    85 C    1.183
    87   7 N    3.406 --    83 C    1.237    86 C    1.208    61 Ni   0.661
    88   6 C    3.938 --    86 C    1.325    97 C    1.321    89 C    1.031
    89   6 C    3.986 --    90 C    1.383    96 C    1.381    88 C    1.031
    90   6 C    3.988 --    91 C    1.465    89 C    1.383   114 H    0.972
                            95 C    0.101
    91   6 C    3.993 --    90 C    1.465    92 C    1.379   115 H    0.971
    92   6 C    3.984 --    91 C    1.379    95 C    1.370    93 C    1.049
    93   6 C    3.864 --    94 O    1.809    92 C    1.049   116 H    0.942
    94   8 O    2.004 --    93 C    1.809
    95   6 C    3.988 --    96 C    1.470    92 C    1.370   117 H    0.968
                            90 C    0.101
    96   6 C    3.988 --    95 C    1.470    89 C    1.381   118 H    0.972
    97   6 C    3.919 --    88 C    1.321   101 N    1.222    98 C    1.176
    98   6 C    3.963 --    99 C    1.650    97 C    1.176   119 H    0.972
    99   6 C    3.959 --    98 C    1.650   100 C    1.175   120 H    0.975
   100   6 C    3.922 --    62 C    1.364   101 N    1.213    99 C    1.175
   101   7 N    3.402 --    97 C    1.222   100 C    1.213    61 Ni   0.663
   102   1 H    1.000 --    62 C    0.970
   103   1 H    0.997 --    64 C    0.975
   104   1 H    1.004 --    65 C    0.972
   105   1 H    1.003 --    70 C    0.972
   106   1 H    1.005 --    71 C    0.968
   107   1 H    1.010 --    73 C    0.942
   108   1 H    1.000 --    75 C    0.971
   109   1 H    1.003 --    76 C    0.972
   110   1 H    1.004 --    78 C    0.972
   111   1 H    1.001 --    79 C    0.973
   112   1 H    1.001 --    84 C    0.973
   113   1 H    1.003 --    85 C    0.973
   114   1 H    1.004 --    90 C    0.972
   115   1 H    1.000 --    91 C    0.971
   116   1 H    1.010 --    93 C    0.942
   117   1 H    1.005 --    95 C    0.968
   118   1 H    1.004 --    96 C    0.972
   119   1 H    1.004 --    98 C    0.972
   120   1 H    0.997 --    99 C    0.975
   121   6 C    3.879 --   122 C    2.446    22 C    1.185   124 C    0.187
   122   6 C    3.938 --   121 C    2.446   123 C    1.340
   123   6 C    3.895 --   124 C    2.341   122 C    1.340   126 C    0.183
   124   6 C    3.928 --   123 C    2.341   125 C    1.366   121 C    0.187
   125   6 C    3.928 --   126 C    2.341   124 C    1.366   128 C    0.187
   126   6 C    3.895 --   125 C    2.341   127 C    1.340   123 C    0.183
   127   6 C    3.938 --   128 C    2.446   126 C    1.340
   128   6 C    3.879 --   127 C    2.446    82 C    1.185   125 C    0.187
 ---------------------------------------------------------------------------

           -------------------------------------------------
          | TOTAL ENERGY             -233.474867358242 Eh   |
          | GRADIENT NORM               0.000655861117 Eh/α |
          | HOMO-LUMO GAP               1.227291471655 eV   |
           -------------------------------------------------

 * finished run on 2022/07/30 at 04:33:13.962
