   * xtb version 6.5.1 (b24c23e) compiled by 'conda@728c89f4b128' on 2022-07-12
          program call               : xtb Zn_BSA_C4_3.xyz --gfn 1 --opt -T 48

   ID    Z sym.   atoms
    1   30 Zn     1, 65, 137
    2    6 C      2-6, 8-12, 17-21, 23-28, 30-34, 39-44, 66-70, 72-76, 81-85,
                  87-92, 94-98, 103-108, 129-136, 138-142, 144-148, 153-157,
                  159-164, 166-170, 175-180
    3    7 N      7, 22, 29, 45, 71, 86, 93, 109, 143, 158, 165, 181
    4   16 S      13, 35, 77, 99, 149, 171
    5    8 O      14-16, 36-38, 78-80, 100-102, 150-152, 172-174
    6    1 H      46-64, 110-128, 182-199

          :  Hamiltonian                  GFN1-xTB          :
 * total energy  :  -395.8841089 Eh     change       -0.1600597E-08 Eh
 * total energy  :  -396.2038829 Eh     change       -0.3197740E+00 Eh
 * total energy  :  -396.3624340 Eh     change       -0.1585511E+00 Eh
 * total energy  :  -396.4434824 Eh     change       -0.8104848E-01 Eh
 * total energy  :  -396.5105131 Eh     change       -0.6703066E-01 Eh
 * total energy  :  -396.5610098 Eh     change       -0.5049673E-01 Eh
 * total energy  :  -396.5866343 Eh     change       -0.2562448E-01 Eh
 * total energy  :  -396.6048675 Eh     change       -0.1823321E-01 Eh
 * total energy  :  -396.6172541 Eh     change       -0.1238653E-01 Eh
 * total energy  :  -396.6325692 Eh     change       -0.1531512E-01 Eh
 * total energy  :  -396.7387780 Eh     change       -0.5102840E-04 Eh
 * total energy  :  -396.7388051 Eh     change       -0.2709786E-04 Eh
 * total energy  :  -396.7388033 Eh     change        0.1811332E-05 Eh
 * total energy  :  -396.7388305 Eh     change       -0.2728583E-04 Eh
 * total energy  :  -396.7388417 Eh     change       -0.1120826E-04 Eh
 * total energy  :  -396.7388575 Eh     change       -0.1579716E-04 Eh
 * total energy  :  -396.7388658 Eh     change       -0.8304655E-05 Eh
 * total energy  :  -396.7388739 Eh     change       -0.8007493E-05 Eh
 * total energy  :  -396.7388784 Eh     change       -0.4521553E-05 Eh
   *** GEOMETRY OPTIMIZATION CONVERGED AFTER 65 ITERATIONS ***

 final structure:
================
199
 xtb: 6.5.1 (b24c23e)
Zn          33.98827753654132        0.05263238371413        0.01499299210706
C           30.58072226794799        0.11013480180276        0.05983544435437
C           31.21002636820861       -0.19548701162161        1.26042972138799
C           30.53539413882132       -0.51308498507360        2.48837504231978
C           31.49355295355392       -0.74741344490348        3.41891717377640
C           32.76694973483621       -0.56358757455448        2.77293105985917
N           32.55944454694768       -0.24046034039321        1.46424242709542
C           34.01887837045446       -0.71428708637928        3.38115894386840
C           34.03672298439393       -1.05533093106052        4.82487532100843
C           33.48645082368356       -0.18138800446826        5.76598295049074
C           33.51140171305043       -0.49313997136892        7.11535026787304
C           34.08636394194963       -1.69002792029150        7.51110361844331
S           34.13389887705090       -2.08503444183133        9.21791130232100
O           34.05948312503560       -0.89793336590148       10.01810052203544
O           32.70854815380841       -2.85774558258933        9.32244724349245
O           35.17517252237170       -3.03103050748969        9.49417958358972
C           34.63924429357988       -2.57780951513542        6.60231345831336
C           34.61292736984442       -2.25322388757548        5.25622967518698
C           35.25885481790777       -0.57227285198335        2.74718874214756
C           36.53873109775846       -0.66532368393582        3.39506862505197
C           37.48412056158921       -0.45920891279713        2.44362978197742
N           35.45048094800031       -0.29596316975422        1.42116275868818
C           36.79309050464951       -0.23078507985727        1.20820731444834
C           37.42127997420896        0.00645856580148       -0.02866612835275
C           36.76914939003271        0.25785989779668       -1.25015359607811
C           37.43525145235221        0.46564876245901       -2.50271253755175
C           36.47213325766154        0.69183504712322       -3.43168067200348
C           35.20667516096380        0.63381537082570       -2.75214757832670
N           35.42391222475918        0.35649057102097       -1.43028077871723
C           33.95528062553441        0.80882657561278       -3.35464865984078
C           33.94402958108188        1.13882291047115       -4.80097756132838
C           33.33603291566197        0.27764730240892       -5.71798506891531
C           33.32850106152615        0.57965232491048       -7.06983934974220
C           33.93227085264515        1.75274677647290       -7.49256888158089
S           33.91973821334962        2.14619486362609       -9.20082301543157
O           34.05115149375571        3.55962770839646       -9.40614232553713
O           35.33208715727047        1.45966948318149       -9.61860680458420
O           32.85851759381019        1.45181890478535       -9.86669583989468
C           34.53690014939934        2.63062565531467       -6.60727360179921
C           34.54180305998852        2.31628746405482       -5.25852230077906
C           32.71577615945322        0.70184089750020       -2.71247408669652
C           31.43262160508997        0.92905888936065       -3.32465128808220
C           30.49227374296182        0.73184179222369       -2.36781211457181
C           31.18809029777449        0.39279752556934       -1.15753077141608
N           32.53231878767296        0.38948259687154       -1.39760514240002
H           29.49543769090634        0.12951613871759        0.07438668008817
H           29.46434817576833       -0.55623548230977        2.60878314705475
H           31.35557630197415       -1.03054547400646        4.45014705462194
H           33.05414593367846        0.75644892283699        5.43713471507811
H           33.09951745305495        0.18306420410703        7.85392692933334
H           32.56480673904141       -3.17146144305332       10.22351422266979
H           35.08503756806230       -3.50246974409795        6.94678930768662
H           35.03169026140185       -2.93814631170609        4.52810643097526
H           36.69271055725761       -0.85019709956387        4.44593873235359
H           38.55598819490319       -0.45427256529507        2.56131075415447
H           38.50353383980847        0.43382351850492       -2.64630307451248
H           36.60494012161443        0.86958789487704       -4.48668764748009
H           32.88018606707595       -0.64133814705109       -5.36831980874004
H           32.86068138040186       -0.08133040538048       -7.78857502078350
H           35.62089247588467        1.79137851236171      -10.47763712858479
H           34.98832637081453        3.54531766399342       -6.97059276779695
H           34.99878492146637        2.99540167918299       -4.54816655890869
H           31.27681217985026        1.21492326834386       -4.35255056018960
H           29.42064714392059        0.81351073696286       -2.45949519342626
Zn          60.95373246304842        0.04240259860070       -0.00966603041560
C           64.36179156979343        0.12427659193022       -0.03011977216304
C           63.73201906123042        0.27594849279910       -1.25940621879850
C           64.40618177269579        0.43413529085475       -2.51809265532285
C           63.44762170048036        0.54784185444071       -3.47052457203278
C           62.17443886586175        0.47119427955725       -2.80288891245361
N           62.38247561245845        0.29764092342212       -1.46633661684998
C           60.92256162058928        0.53479364271236       -3.42646769352084
C           60.90579796903787        0.74706464993189       -4.89475951647809
C           61.43688418672662        1.91661667231444       -5.44469499125106
C           61.41229663660087        2.12523874949955       -6.81374861945434
C           60.85728413953341        1.14904149789871       -7.62536317109182
S           60.81004686724302        1.41257190774130       -9.35734216729012
O           60.85918068296046        2.81287992879636       -9.65978522099515
O           62.24784613008969        0.75804389842804       -9.73665254860966
O           59.78564777594564        0.61711092291768       -9.96865416926536
C           60.32451867597470       -0.02183132569988       -7.11062414418446
C           60.35009498509942       -0.21725420017772       -5.73973069657604
C           59.68283817587611        0.41899535913012       -2.78709396066835
C           58.40224393336583        0.54184722602113       -3.42868169313448
C           57.45718637878562        0.38445838653902       -2.46777662911054
N           59.49152977329854        0.20416311540877       -1.44954728778023
C           58.14892299013727        0.17344719129720       -1.22956186136262
C           57.52068172018839       -0.02807070057679        0.01367292467987
C           58.17267660520430       -0.20774769481034        1.24788509274211
C           57.50648125459233       -0.45025823294114        2.49422681497618
C           58.47001025762203       -0.57454762259912        3.44172286747257
C           59.73596790204246       -0.39775985766649        2.78389302727919
N           59.51822817290179       -0.18622901634693        1.44984475914463
C           60.98801446595885       -0.46221483733530        3.40635984645150
C           61.00201764168414       -0.68454572237294        4.87318314301241
C           61.60138145304840       -1.82832458297598        5.40690954353697
C           61.61312674092453       -2.04436651452268        6.77504745030342
C           61.02215984731367       -1.10285341704513        7.60190719934437
S           61.04178296592937       -1.36410775705614        9.33528352553934
O           60.92699066698249       -0.12352266585762       10.04586751170415
O           59.62229174400287       -2.14170722701992        9.48152854543117
O           62.09636618451672       -2.26487328482302        9.69341716405462
C           60.42625202130287        0.04466479693632        7.10378633120206
C           60.41709608654637        0.24812836751812        5.73387084379482
C           62.22751473672623       -0.33630043723432        2.76742452893471
C           63.51101256405566       -0.35126157572259        3.41957467266169
C           64.45112746489860       -0.18657106672964        2.45637619017557
C           63.75485879790799       -0.05932026011523        1.20624835163300
N           62.41059800489242       -0.14876818491401        1.42910294170122
H           65.44699042712544        0.15144071975383       -0.03648630111647
H           65.47724349770262        0.44685038121178       -2.64525240221764
H           63.58515468663131        0.66204137466718       -4.53386299760032
H           61.85382341429451        2.67398057581507       -4.79113211718011
H           61.80906810330207        3.03385667374452       -7.24891173804074
H           62.37483374212531        0.76434567480036      -10.69312087850230
H           59.89428816238301       -0.76178606712898       -7.77377404194651
H           59.94686138343113       -1.13037406924810       -5.31756464759945
H           58.24733222029800        0.73779667462217       -4.47739023922780
H           56.38499583040847        0.41532358255367       -2.57830220928562
H           56.43784743575134       -0.52367705811044        2.61864186169299
H           58.33708551771389       -0.78059980080375        4.49155094825217
H           62.04756709413170       -2.55861347361623        4.74191994936154
H           62.07455664090024       -2.92758616845184        7.19852345256106
H           59.33415575555533       -2.13385913446183       10.40222186972270
H           59.98497546588715        0.76627619179230        7.77980281086040
H           59.96723445521452        1.14532492581627        5.32488744479502
H           63.66718101158090       -0.46089133084087        4.48078270436855
H           65.52287630470093       -0.14553915991598        2.57099757896039
C           40.05143658503481       -0.02027829929598       -0.05059196988160
C           38.83067153595539       -0.00799107280438       -0.04419002339408
C           41.40370349928876       -0.03006591838039       -0.05563401438490
C           42.62455649604897       -0.03833304386283       -0.05685934210545
C           53.53807767482826       -0.07140749231545        0.02038836155727
C           52.31719433677365       -0.07590618958807        0.01272201925929
C           54.89043585157583       -0.06295019159025        0.02222282342198
C           56.11124825872695       -0.04981776684792        0.02177125515190
Zn          47.47149711255639       -0.05550083441992       -0.02721906190263
C           44.03370858553434       -0.04218048907097       -0.05255817741568
C           44.67466033589161        1.02899072667865        0.59776600523019
C           43.99588082163465        2.10086665592545        1.26535698276236
C           44.95080602203943        2.93547717262542        1.74857309870205
C           46.22340618414116        2.38364096563989        1.37340727990549
N           46.01918104204447        1.21999823364077        0.68361581408749
C           47.46984018047759        2.93570198187452        1.68901376986192
C           47.46838713687166        4.22832811193770        2.41810002902937
C           48.02634070956935        4.31998315439113        3.69563831344332
C           48.02812673107356        5.52532018875492        4.37829943190829
C           47.46918343033813        6.63619841491124        3.76768435372273
S           47.48318995218506        8.16953244522509        4.61761666626358
O           47.42160366061205        9.26890245766653        3.69858698516632
O           46.03428870573409        8.06011962953744        5.34420478771928
O           48.50197270844062        8.17361440796568        5.62448595210686
C           46.91255163558433        6.57826276227080        2.50011606363187
C           46.91228101116796        5.36682587910257        1.82889381547561
C           48.71679063256031        2.38242464437582        1.37742065753644
C           49.98928325925350        2.98429831204531        1.66594976234641
C           50.94459354355428        2.14229431384887        1.19663577386423
N           48.92157411082805        1.19686015564190        0.72597607768291
C           50.26633842159631        1.02456794813149        0.60852159160180
C           50.90795521133144       -0.07244580260041        0.00339264346486
C           50.26671118109805       -1.16322404221766       -0.61320367842175
C           50.94454830767464       -2.28621192208859       -1.19153673732926
C           49.98967049212639       -3.11726812265582       -1.68099777817443
C           48.71807683062308       -2.50334848506634       -1.41450824533963
N           48.92267202350677       -1.32192998457911       -0.75551608816949
C           47.47152635585874       -3.04285403976208       -1.75121138139507
C           47.47049650427472       -4.33149922060197       -2.48720383263071
C           48.05244060796046       -4.42220015866175       -3.75411591498014
C           48.05340799639668       -5.62332801642715       -4.44413211686382
C           47.46929525153799       -6.73109391205453       -3.85166679496872
S           47.48145625820770       -8.25893696996168       -4.71116284192111
O           47.39071534648020       -9.36362791582710       -3.80101763627975
O           46.04714174118550       -8.12740299370401       -5.46339627681565
O           48.51798148377810       -8.26857284277221       -5.69987594279424
C           46.88900554186839       -6.67430104599938       -2.59467675101214
C           46.88999051227960       -5.46702778540214       -1.91600343839805
C           46.22486161732904       -2.48052297047228       -1.45463799015489
C           44.95351637921840       -3.02035448822047       -1.85108560641023
C           43.99813156066161       -2.18077469261705       -1.37733077817218
C           44.67556952909382       -1.11654326113926       -0.69645572143574
N           46.01967252414336       -1.31777932642123       -0.76359727372302
H           42.92517047669483        2.19317453158191        1.35370888978223
H           44.80798679754212        3.83864472494383        2.31965964727927
H           48.44923749979744        3.43662911858764        4.15977309776212
H           48.45871072010372        5.60727888448627        5.36835752069621
H           45.75184937891032        8.93002329620113        5.65281177592316
H           46.49523161134114        7.46903060874597        2.04754259466332
H           46.49325216473880        5.30274597058789        0.83143654957527
H           50.13214461753898        3.93521185671024        2.15330179814021
H           52.01527243586347        2.26447028522672        1.23405264887048
H           52.01448782963436       -2.41904821718379       -1.20920629586488
H           50.13200743668915       -4.06829031176351       -2.16830308023551
H           48.49475749061399       -3.54120402779922       -4.20440051701158
H           48.50221764529149       -5.70448879335235       -5.42613405496578
H           45.76784753344580       -8.98891452884593       -5.79679196421072
H           46.45242158394097       -7.56269535527091       -2.15581978434010
H           46.45253160135709       -5.40413780540760       -0.92640936135032
H           44.81170662024754       -3.91957306250305       -2.42862055249796
H           42.92807792677687       -2.26419578183129       -1.48134906728355

          :  Hamiltonian                  GFN1-xTB          :
         :: total energy            -396.738878376747 Eh    ::
         :: gradient norm              0.000849996511 Eh/a0 ::
         :: HOMO-LUMO gap              1.188594259475 eV    ::
         :: SCC energy              -402.070508172117 Eh    ::
         :: repulsion energy           5.514924461311 Eh    ::

    * Orbital Energies and Occupations

         #    Occupation            Energy/Eh            Energy/eV
      -------------------------------------------------------------
         1        2.0000           -1.0360302             -28.1918
       ...           ...                  ...                  ...
       329        2.0000           -0.4385803             -11.9344
       330        2.0000           -0.4382249             -11.9247
       331        2.0000           -0.4377110             -11.9107
       332        2.0000           -0.4374201             -11.9028
       333        2.0000           -0.4365225             -11.8784
       334        2.0000           -0.4353369             -11.8461
       335        2.0000           -0.4320542             -11.7568
       336        2.0000           -0.4124593             -11.2236
       337        2.0000           -0.4112188             -11.1898
       338        2.0000           -0.4100508             -11.1581
       339        2.0000           -0.4021008             -10.9417
       340        2.0000           -0.3997708             -10.8783
       341        2.0000           -0.3963683             -10.7857 (HOMO)
       342                         -0.3526883              -9.5971 (LUMO)
       343                         -0.3470114              -9.4427
       344                         -0.3469487              -9.4410
       345                         -0.3461978              -9.4205
       346                         -0.3449980              -9.3879
       347                         -0.3448509              -9.3839
       348                         -0.3213263              -8.7437
       349                         -0.3174205              -8.6375
       350                         -0.3163466              -8.6082
       351                         -0.3086271              -8.3982
       352                         -0.3080424              -8.3823
       ...                                ...                  ...
       714                          1.5035892              40.9147
      -------------------------------------------------------------
                  HL-Gap            0.0436800 Eh            1.1886 eV

Wiberg/Mayer (AO) data.
largest (>0.10) Wiberg bond orders for each atom

     #   Z sym  total        # sym  WBO       # sym  WBO       # sym  WBO
 ---------------------------------------------------------------------------
     1  30 Zn   1.993 --    45 N    0.460     7 N    0.459    22 N    0.455
                            29 N    0.454
     2   6 C    3.932 --    44 C    1.359     3 C    1.358    46 H    0.971
     3   6 C    3.920 --     2 C    1.358     7 N    1.233     4 C    1.169
     4   6 C    3.961 --     5 C    1.662     3 C    1.169    47 H    0.975
     5   6 C    3.963 --     4 C    1.662     6 C    1.169    48 H    0.973
     6   6 C    3.920 --     8 C    1.315     7 N    1.245     5 C    1.169
     7   7 N    3.295 --     6 C    1.245     3 C    1.233     1 Zn   0.459
     8   6 C    3.933 --    19 C    1.319     6 C    1.315     9 C    1.030
     9   6 C    3.985 --    10 C    1.390    18 C    1.389     8 C    1.030
    10   6 C    3.986 --    11 C    1.450     9 C    1.390    49 H    0.971
                            17 C    0.105
    11   6 C    3.989 --    10 C    1.450    12 C    1.406    50 H    0.967
                            18 C    0.105
    12   6 C    3.929 --    11 C    1.406    17 C    1.406    13 S    0.754
    13  16 S    5.263 --    14 O    1.719    16 O    1.718    15 O    1.012
                            12 C    0.754
    14   8 O    2.077 --    13 S    1.719    16 O    0.139
    15   8 O    2.086 --    13 S    1.012    51 H    0.828
    16   8 O    2.076 --    13 S    1.718    14 O    0.139
    17   6 C    3.989 --    18 C    1.451    12 C    1.406    52 H    0.967
                            10 C    0.105
    18   6 C    3.986 --    17 C    1.451     9 C    1.389    53 H    0.971
                            11 C    0.105
    19   6 C    3.914 --     8 C    1.319    22 N    1.231    20 C    1.176
    20   6 C    3.961 --    21 C    1.649    19 C    1.176    54 H    0.973
    21   6 C    3.962 --    20 C    1.649    23 C    1.183    55 H    0.974
    22   7 N    3.297 --    23 C    1.257    19 C    1.231     1 Zn   0.455
    23   6 C    3.904 --    24 C    1.263    22 N    1.257    21 C    1.183
    24   6 C    3.942 --    25 C    1.263    23 C    1.263   130 C    1.173
    25   6 C    3.905 --    24 C    1.263    29 N    1.257    26 C    1.184
    26   6 C    3.962 --    27 C    1.649    25 C    1.184    56 H    0.974
    27   6 C    3.961 --    26 C    1.649    28 C    1.176    57 H    0.973
    28   6 C    3.914 --    30 C    1.319    29 N    1.231    27 C    1.176
    29   7 N    3.297 --    25 C    1.257    28 C    1.231     1 Zn   0.454
    30   6 C    3.933 --    28 C    1.319    41 C    1.315    31 C    1.030
    31   6 C    3.985 --    32 C    1.391    40 C    1.389    30 C    1.030
    32   6 C    3.986 --    33 C    1.450    31 C    1.391    58 H    0.971
                            39 C    0.105
    33   6 C    3.989 --    32 C    1.450    34 C    1.407    59 H    0.967
                            40 C    0.105
    34   6 C    3.929 --    33 C    1.407    39 C    1.406    35 S    0.754
    35  16 S    5.265 --    38 O    1.726    36 O    1.713    37 O    1.013
                            34 C    0.754
    36   8 O    2.072 --    35 S    1.713    38 O    0.138
    37   8 O    2.087 --    35 S    1.013    60 H    0.828
    38   8 O    2.084 --    35 S    1.726    36 O    0.138
    39   6 C    3.989 --    40 C    1.451    34 C    1.406    61 H    0.967
                            32 C    0.105
    40   6 C    3.986 --    39 C    1.451    31 C    1.389    62 H    0.971
                            33 C    0.105
    41   6 C    3.920 --    30 C    1.315    45 N    1.245    42 C    1.169
    42   6 C    3.963 --    43 C    1.662    41 C    1.169    63 H    0.973
    43   6 C    3.961 --    42 C    1.662    44 C    1.169    64 H    0.975
    44   6 C    3.920 --     2 C    1.359    45 N    1.232    43 C    1.169
    45   7 N    3.296 --    41 C    1.245    44 C    1.232     1 Zn   0.460
    46   1 H    1.001 --     2 C    0.971
    47   1 H    0.997 --     4 C    0.975
    48   1 H    1.004 --     5 C    0.973
    49   1 H    1.003 --    10 C    0.971
    50   1 H    0.999 --    11 C    0.967
    51   1 H    0.854 --    15 O    0.828
    52   1 H    1.000 --    17 C    0.967
    53   1 H    1.003 --    18 C    0.971
    54   1 H    1.004 --    20 C    0.973
    55   1 H    1.002 --    21 C    0.974
    56   1 H    1.002 --    26 C    0.974
    57   1 H    1.004 --    27 C    0.973
    58   1 H    1.003 --    32 C    0.971
    59   1 H    1.000 --    33 C    0.967
    60   1 H    0.855 --    37 O    0.828
    61   1 H    1.000 --    39 C    0.967
    62   1 H    1.003 --    40 C    0.971
    63   1 H    1.003 --    42 C    0.973
    64   1 H    0.997 --    43 C    0.975
    65  30 Zn   1.992 --   109 N    0.459    71 N    0.459    86 N    0.455
                            93 N    0.454
    66   6 C    3.932 --   108 C    1.359    67 C    1.358   110 H    0.971
    67   6 C    3.920 --    66 C    1.358    71 N    1.232    68 C    1.169
    68   6 C    3.961 --    69 C    1.662    67 C    1.169   111 H    0.975
    69   6 C    3.963 --    68 C    1.662    70 C    1.169   112 H    0.973
    70   6 C    3.920 --    72 C    1.314    71 N    1.246    69 C    1.169
    71   7 N    3.296 --    70 C    1.246    67 C    1.232    65 Zn   0.459
    72   6 C    3.933 --    83 C    1.320    70 C    1.314    73 C    1.030
    73   6 C    3.985 --    74 C    1.390    82 C    1.390    72 C    1.030
    74   6 C    3.986 --    75 C    1.450    73 C    1.390   113 H    0.971
                            81 C    0.105
    75   6 C    3.989 --    74 C    1.450    76 C    1.406   114 H    0.967
                            82 C    0.105
    76   6 C    3.929 --    75 C    1.406    81 C    1.406    77 S    0.754
    77  16 S    5.263 --    78 O    1.720    80 O    1.717    79 O    1.012
                            76 C    0.754
    78   8 O    2.078 --    77 S    1.720    80 O    0.139
    79   8 O    2.087 --    77 S    1.012   115 H    0.828
    80   8 O    2.076 --    77 S    1.717    78 O    0.139
    81   6 C    3.989 --    82 C    1.451    76 C    1.406   116 H    0.967
                            74 C    0.105
    82   6 C    3.986 --    81 C    1.451    73 C    1.390   117 H    0.971
                            75 C    0.105
    83   6 C    3.914 --    72 C    1.320    86 N    1.230    84 C    1.176
    84   6 C    3.961 --    85 C    1.650    83 C    1.176   118 H    0.973
    85   6 C    3.962 --    84 C    1.650    87 C    1.183   119 H    0.974
    86   7 N    3.298 --    87 C    1.257    83 C    1.230    65 Zn   0.455
    87   6 C    3.904 --    88 C    1.263    86 N    1.257    85 C    1.183
    88   6 C    3.942 --    89 C    1.263    87 C    1.263   136 C    1.173
    89   6 C    3.905 --    88 C    1.263    93 N    1.258    90 C    1.183
    90   6 C    3.962 --    91 C    1.650    89 C    1.183   120 H    0.974
    91   6 C    3.961 --    90 C    1.650    92 C    1.176   121 H    0.973
    92   6 C    3.914 --    94 C    1.320    93 N    1.231    91 C    1.176
    93   7 N    3.297 --    89 C    1.258    92 C    1.231    65 Zn   0.454
    94   6 C    3.933 --    92 C    1.320   105 C    1.314    95 C    1.030
    95   6 C    3.985 --    96 C    1.391   104 C    1.389    94 C    1.030
    96   6 C    3.986 --    97 C    1.450    95 C    1.391   122 H    0.971
                           103 C    0.106
    97   6 C    3.989 --    96 C    1.450    98 C    1.407   123 H    0.967
                           104 C    0.105
    98   6 C    3.929 --    97 C    1.407   103 C    1.406    99 S    0.754
    99  16 S    5.265 --   102 O    1.727   100 O    1.713   101 O    1.013
                            98 C    0.754
   100   8 O    2.072 --    99 S    1.713   102 O    0.138
   101   8 O    2.087 --    99 S    1.013   124 H    0.828
   102   8 O    2.084 --    99 S    1.727   100 O    0.138
   103   6 C    3.989 --   104 C    1.451    98 C    1.406   125 H    0.967
                            96 C    0.106
   104   6 C    3.986 --   103 C    1.451    95 C    1.389   126 H    0.971
                            97 C    0.105
   105   6 C    3.920 --    94 C    1.314   109 N    1.246   106 C    1.169
   106   6 C    3.963 --   107 C    1.662   105 C    1.169   127 H    0.973
   107   6 C    3.961 --   106 C    1.662   108 C    1.169   128 H    0.975
   108   6 C    3.920 --    66 C    1.359   109 N    1.232   107 C    1.169
   109   7 N    3.296 --   105 C    1.246   108 C    1.232    65 Zn   0.459
   110   1 H    1.001 --    66 C    0.971
   111   1 H    0.997 --    68 C    0.975
   112   1 H    1.004 --    69 C    0.973
   113   1 H    1.003 --    74 C    0.971
   114   1 H    0.999 --    75 C    0.967
   115   1 H    0.854 --    79 O    0.828
   116   1 H    1.000 --    81 C    0.967
   117   1 H    1.003 --    82 C    0.971
   118   1 H    1.004 --    84 C    0.973
   119   1 H    1.002 --    85 C    0.974
   120   1 H    1.002 --    90 C    0.974
   121   1 H    1.004 --    91 C    0.973
   122   1 H    1.003 --    96 C    0.971
   123   1 H    1.000 --    97 C    0.967
   124   1 H    0.855 --   101 O    0.828
   125   1 H    1.000 --   103 C    0.967
   126   1 H    1.003 --   104 C    0.971
   127   1 H    1.003 --   106 C    0.973
   128   1 H    0.997 --   107 C    0.975
   129   6 C    3.933 --   130 C    2.491   131 C    1.293
   130   6 C    3.918 --   129 C    2.491    24 C    1.173   132 C    0.196
   131   6 C    3.931 --   132 C    2.490   129 C    1.293
   132   6 C    3.919 --   131 C    2.490   138 C    1.175   130 C    0.196
   133   6 C    3.931 --   134 C    2.490   135 C    1.293
   134   6 C    3.920 --   133 C    2.490   160 C    1.175   136 C    0.196
   135   6 C    3.933 --   136 C    2.491   133 C    1.293
   136   6 C    3.918 --   135 C    2.491    88 C    1.173   134 C    0.196
   137  30 Zn   1.990 --   158 N    0.456   165 N    0.456   143 N    0.456
                           181 N    0.456
   138   6 C    3.933 --   180 C    1.262   139 C    1.261   132 C    1.175
   139   6 C    3.905 --   138 C    1.261   143 N    1.258   140 C    1.185
   140   6 C    3.961 --   141 C    1.648   139 C    1.185   182 H    0.974
   141   6 C    3.961 --   140 C    1.648   142 C    1.178   183 H    0.973
   142   6 C    3.913 --   144 C    1.318   143 N    1.229   141 C    1.178
   143   7 N    3.293 --   139 C    1.258   142 C    1.229   137 Zn   0.456
   144   6 C    3.929 --   155 C    1.318   142 C    1.318   145 C    1.029
   145   6 C    3.985 --   146 C    1.391   154 C    1.390   144 C    1.029
   146   6 C    3.986 --   147 C    1.449   145 C    1.391   184 H    0.971
                           153 C    0.106
   147   6 C    3.989 --   146 C    1.449   148 C    1.407   185 H    0.967
                           154 C    0.106
   148   6 C    3.930 --   147 C    1.407   153 C    1.406   149 S    0.754
   149  16 S    5.266 --   152 O    1.727   150 O    1.713   151 O    1.013
                           148 C    0.754
   150   8 O    2.072 --   149 S    1.713   152 O    0.138
   151   8 O    2.088 --   149 S    1.013   186 H    0.828
   152   8 O    2.084 --   149 S    1.727   150 O    0.138
   153   6 C    3.989 --   154 C    1.451   148 C    1.406   187 H    0.967
                           146 C    0.106
   154   6 C    3.986 --   153 C    1.451   145 C    1.390   188 H    0.971
                           147 C    0.106
   155   6 C    3.912 --   144 C    1.318   158 N    1.229   156 C    1.178
   156   6 C    3.961 --   157 C    1.648   155 C    1.178   189 H    0.973
   157   6 C    3.961 --   156 C    1.648   159 C    1.184   190 H    0.974
   158   7 N    3.294 --   159 C    1.258   155 C    1.229   137 Zn   0.456
   159   6 C    3.904 --   160 C    1.262   158 N    1.258   157 C    1.184
   160   6 C    3.933 --   161 C    1.262   159 C    1.262   134 C    1.175
   161   6 C    3.904 --   160 C    1.262   165 N    1.258   162 C    1.184
   162   6 C    3.961 --   163 C    1.648   161 C    1.184   191 H    0.974
   163   6 C    3.961 --   162 C    1.648   164 C    1.178   192 H    0.973
   164   6 C    3.913 --   166 C    1.318   165 N    1.229   163 C    1.178
   165   7 N    3.294 --   161 C    1.258   164 C    1.229   137 Zn   0.456
   166   6 C    3.929 --   164 C    1.318   177 C    1.318   167 C    1.029
   167   6 C    3.985 --   168 C    1.391   176 C    1.390   166 C    1.029
   168   6 C    3.986 --   169 C    1.450   167 C    1.391   193 H    0.971
                           175 C    0.106
   169   6 C    3.989 --   168 C    1.450   170 C    1.407   194 H    0.967
                           176 C    0.105
   170   6 C    3.929 --   169 C    1.407   175 C    1.406   171 S    0.754
   171  16 S    5.265 --   174 O    1.726   172 O    1.713   173 O    1.013
                           170 C    0.754
   172   8 O    2.072 --   171 S    1.713   174 O    0.138
   173   8 O    2.087 --   171 S    1.013   195 H    0.828
   174   8 O    2.084 --   171 S    1.726   172 O    0.138
   175   6 C    3.989 --   176 C    1.451   170 C    1.406   196 H    0.967
                           168 C    0.106
   176   6 C    3.986 --   175 C    1.451   167 C    1.390   197 H    0.971
                           169 C    0.105
   177   6 C    3.913 --   166 C    1.318   181 N    1.229   178 C    1.178
   178   6 C    3.961 --   179 C    1.647   177 C    1.178   198 H    0.973
   179   6 C    3.961 --   178 C    1.647   180 C    1.185   199 H    0.974
   180   6 C    3.905 --   138 C    1.262   181 N    1.258   179 C    1.185
   181   7 N    3.293 --   180 C    1.258   177 C    1.229   137 Zn   0.456
   182   1 H    1.002 --   140 C    0.974
   183   1 H    1.004 --   141 C    0.973
   184   1 H    1.003 --   146 C    0.971
   185   1 H    1.000 --   147 C    0.967
   186   1 H    0.855 --   151 O    0.828
   187   1 H    1.000 --   153 C    0.967
   188   1 H    1.003 --   154 C    0.971
   189   1 H    1.003 --   156 C    0.973
   190   1 H    1.002 --   157 C    0.974
   191   1 H    1.002 --   162 C    0.974
   192   1 H    1.003 --   163 C    0.973
   193   1 H    1.003 --   168 C    0.971
   194   1 H    1.000 --   169 C    0.967
   195   1 H    0.855 --   173 O    0.828
   196   1 H    1.000 --   175 C    0.967
   197   1 H    1.003 --   176 C    0.971
   198   1 H    1.004 --   178 C    0.973
   199   1 H    1.002 --   179 C    0.974
 ---------------------------------------------------------------------------

           -------------------------------------------------
          | TOTAL ENERGY             -396.738878376747 Eh   |
          | GRADIENT NORM               0.000849996511 Eh/α |
          | HOMO-LUMO GAP               1.188594259475 eV   |
           -------------------------------------------------

 * finished run on 2022/07/30 at 15:55:55.155
