   * xtb version 6.5.1 (b24c23e) compiled by 'conda@728c89f4b128' on 2022-07-12
          program call               : xtb Fe_PhCN_C6_3.xyz --gfn 1 --opt -T 48

   ID    Z sym.   atoms
    1   26 Fe     1, 59, 129
    2    6 C      2-6, 8-13, 15-19, 21-26, 28-33, 35-40, 60-64, 66-71, 73-77,
                  79-84, 86-91, 93-98, 117-128, 130-134, 136-141, 143-147,
                  149-154, 156-161, 163-168
    3    7 N      7, 14, 20, 27, 34, 41, 65, 72, 78, 85, 92, 99, 135, 142,
                  148, 155, 162, 169
    4    1 H      42-58, 100-116, 170-185

          :  Hamiltonian                  GFN1-xTB          :
 * total energy  :  -333.1048884 Eh     change       -0.4983747E-08 Eh
 * total energy  :  -333.4470033 Eh     change       -0.3421149E+00 Eh
 * total energy  :  -333.5664467 Eh     change       -0.1194434E+00 Eh
 * total energy  :  -333.6630675 Eh     change       -0.9662074E-01 Eh
 * total energy  :  -333.7296877 Eh     change       -0.6662025E-01 Eh
 * total energy  :  -333.7658662 Eh     change       -0.3617847E-01 Eh
 * total energy  :  -333.7905939 Eh     change       -0.2472771E-01 Eh
 * total energy  :  -333.8068654 Eh     change       -0.1627153E-01 Eh
 * total energy  :  -333.8159759 Eh     change       -0.9110498E-02 Eh
 * total energy  :  -333.8250403 Eh     change       -0.9064401E-02 Eh
 * total energy  :  -333.8694145 Eh     change       -0.1740562E-05 Eh
 * total energy  :  -333.8694412 Eh     change       -0.2666387E-04 Eh
 * total energy  :  -333.8694528 Eh     change       -0.1160664E-04 Eh
 * total energy  :  -333.8694614 Eh     change       -0.8541400E-05 Eh
 * total energy  :  -333.8694720 Eh     change       -0.1061336E-04 Eh
 * total energy  :  -333.8694813 Eh     change       -0.9331598E-05 Eh
 * total energy  :  -333.8694843 Eh     change       -0.3040309E-05 Eh
 * total energy  :  -333.8694900 Eh     change       -0.5629340E-05 Eh
 * total energy  :  -333.8694942 Eh     change       -0.4228368E-05 Eh
   *** GEOMETRY OPTIMIZATION CONVERGED AFTER 60 ITERATIONS ***

 final structure:
================
185
 xtb: 6.5.1 (b24c23e)
Fe          31.23862422730931        0.02770785306628        0.03827545989244
C           27.85238982184003        0.04168738629349        0.15603899497246
C           28.50403589130367        1.25663350945151        0.20905339884138
C           27.83009912130120        2.51782582771118        0.28097014419860
C           28.78967602690346        3.46309250728874        0.41701471095277
C           30.04837614378669        2.77516668684615        0.44306334449444
N           29.86188865082714        1.43055568475531        0.27152288403757
C           31.27155044582486        3.39733528400896        0.67132133308226
C           31.28491030659779        4.85310178201735        0.94482617581847
C           30.62549305060267        5.36984180966158        2.06241909855333
C           30.63613576202196        6.72887398900489        2.32014708991167
C           31.30415516134570        7.60089785685712        1.45533935724580
C           31.31076384400343        9.00088742078980        1.71379894662637
N           31.31663659596229       10.13249150311093        1.92225824719332
C           31.96436765668708        7.08847009391644        0.33459842106807
C           31.95624622072970        5.72743336959520        0.08719361930897
C           32.47850488435309        2.71235969195610        0.66277329051385
C           33.74349765109081        3.31385027131485        0.96460297054122
C           34.68537157043713        2.35881643430430        0.77415109446007
N           32.64704797860657        1.38923867626863        0.33118767951156
C           33.99318872646137        1.17784075617289        0.36236504402680
C           34.64678699595122        0.00395422176519       -0.03392171113755
C           33.96149294018919       -1.15492726913161       -0.42090554457558
C           34.61941458272879       -2.33671907125760       -0.88301244367406
C           33.65510364406507       -3.27023602159532       -1.06822306513206
C           32.41196870954030       -2.65766749497043       -0.70394366820822
N           32.61380216864255       -1.34452133355057       -0.35052667606106
C           31.19774349553667       -3.32830554970832       -0.66290404113644
C           31.17496824048644       -4.77764730905928       -0.96738852241955
C           30.43390280839202       -5.26170340577247       -2.04793800828751
C           30.40719027848970       -6.61488251330687       -2.33357801987777
C           31.11937320578929       -7.51407076144383       -1.53421693904690
C           31.08699799081976       -8.90813746975343       -1.82105943057347
N           31.05836579785204      -10.03475763956532       -2.05372980212893
C           31.86110879264499       -7.03455871134076       -0.45056204975114
C           31.88926776456448       -5.67920630243808       -0.17505969690680
C           29.99865042030603       -2.70026468012541       -0.34049604016278
C           28.74031416011272       -3.38031188137213       -0.22946899865309
C           27.80244318803199       -2.43226764879532        0.00389964041296
C           28.48957427753716       -1.17677534245709        0.04380090705424
N           29.83675912530087       -1.35808817444107       -0.13122105060811
H           26.76913293446669        0.04513572108326        0.19950937418870
H           26.76025375877150        2.64345192128711        0.23111735883400
H           28.66902560473528        4.53162272512329        0.49141835186441
H           30.11536845330597        4.69520090669999        2.74062915104494
H           30.12756943792128        7.12232063076246        3.19249467686380
H           32.48065250969319        7.76205693090154       -0.33931858131638
H           32.46011632044498        5.33414030259969       -0.78847538001418
H           33.88192608388890        4.33299663467953        1.28681353773636
H           35.75404803116009        2.43311958445841        0.89488841604756
H           35.68202280115147       -2.42490308955070       -1.04208261239259
H           33.76528631415721       -4.28219226717434       -1.42236337239326
H           29.88834934323292       -4.56608140258016       -2.67548788951812
H           29.83465925694108       -6.98290080314991       -3.17690008561338
H           32.41159998366069       -7.72915283657809        0.17308472331513
H           32.45541784415411       -5.31194546771922        0.67343794589845
H           28.60559578600016       -4.44631047642400       -0.31522280305810
H           26.73914163940146       -2.55221642439115        0.13742797632788
Fe          63.21885370975648        0.01109979164965        0.07707075333968
C           66.60832316074503       -0.00499777118439        0.17067859122432
C           65.95545223049974       -1.21276942979007        0.30371177718830
C           66.63084440443376       -2.46549058020775        0.46042387490136
C           65.67148625811355       -3.40387392912825        0.63711677776254
C           64.41097632387959       -2.71952275903186        0.60302836801650
N           64.59701143495089       -1.38586696658359        0.35763119961224
C           63.18615009420908       -3.33564604668509        0.83342754643766
C           63.17199016969168       -4.77727082523790        1.17535539982078
C           63.79908133675806       -5.23437154608488        2.33663577389656
C           63.78453055790317       -6.57876229508545        2.66205895163315
C           63.14472917271949       -7.49583889737363        1.82286614351896
C           63.13162664360003       -8.88068828441847        2.15267619416092
N           63.12188776244678       -9.99958664073852        2.42107157944510
C           62.51813430567213       -7.04329795484383        0.65794136212430
C           62.53030173115217       -5.69639760665520        0.34244110507520
C           61.97705757227935       -2.65703105582419        0.77219840424604
C           60.71019552853971       -3.25424367708247        1.07433397276667
C           59.76837025891505       -2.30698644836650        0.84989548139024
N           61.80945516309970       -1.34560664865994        0.39729352971969
C           60.46193812823010       -1.13442923552421        0.41696579156986
C           59.80860410875307        0.03589903423483        0.01553202159663
C           60.49067234462978        1.18761116711185       -0.39193829117011
C           59.82757399660425        2.36110853183944       -0.86777730325340
C           60.79273860265674        3.27833829209925       -1.11638552812801
C           62.04227172632156        2.66652751247718       -0.77334277367231
N           61.84239917767736        1.36803215393560       -0.36875432814969
C           63.26255753534626        3.32658156664706       -0.80633271344250
C           63.28700172012375        4.75732722432851       -1.19011973945911
C           63.98832993686932        5.17087574959353       -2.32504513615136
C           64.01355388552020        6.50490093172068       -2.68991883801636
C           63.33983972976173        7.45553785357512       -1.91716357133211
C           63.36859278262344        8.82999645161144       -2.28689696726935
N           63.39658225763642        9.94081773898648       -2.58582697617306
C           62.63973619198553        7.04690646829022       -0.77820081132976
C           62.61319960634257        5.71016656668706       -0.42295454981265
C           64.46548504388929        2.70719589307506       -0.48505875526506
C           65.72869949343675        3.38570748492322       -0.43901264446431
C           66.66535919274013        2.45018347508860       -0.15656792713790
C           65.97330761454329        1.20369671437571       -0.02488965153538
N           64.62503685090269        1.37865016978002       -0.19884127285589
H           67.69153808517015       -0.00701733758379        0.21501714871073
H           67.70161348988891       -2.59045826780848        0.43380441836569
H           65.79312763197602       -4.46585936919703        0.77582350277198
H           64.28668119176304       -4.52420244355442        2.99486964895565
H           64.26748304730158       -6.92569923108788        3.56805679428468
H           62.02413709582871       -7.75211096286024        0.00373562040738
H           62.05194803837094       -5.34968929780034       -0.56657380100105
H           60.57072940977838       -4.26487997136644        1.42181355422468
H           58.69878154341952       -2.38032275580319        0.96289366305672
H           58.76107879001488        2.45388456474135       -0.99495242652498
H           60.67881868513592        4.27906805877202       -1.49989300995631
H           64.50350240063364        4.43471868496775       -2.93168806974665
H           64.55446869704532        6.81797413311193       -3.57525011186855
H           62.11972019654560        7.78169155242203       -0.17480661931810
H           62.07932207977856        5.39830344012222        0.46757486730265
H           65.86662607470460        4.44315683279658       -0.59608530825435
H           67.73088077812267        2.57288478546117       -0.04489580749360
C           39.84359643069929       -0.01547687935960       -0.06885612078230
C           38.61278232289023       -0.01659761836029       -0.06386642534691
C           37.27247948319194       -0.01296341940066       -0.05811238062551
C           36.04643111681475       -0.00830977962388       -0.04954256763296
C           41.18369362470590       -0.01088286752486       -0.06735590727544
C           42.41002321799638       -0.00445984327517       -0.06458896712793
C           55.83846519137187        0.06190633082804        0.00288331464413
C           54.60878966467289        0.06111633904572       -0.00174938634775
C           53.26654764981770        0.05553000462429       -0.00551270087827
C           52.04125059749408        0.04745113558983       -0.01104366407445
C           57.18103709091242        0.05813375898985        0.00893487346268
C           58.40598381038525        0.05073607185692        0.01208689739216
Fe          47.22463463841341        0.02145374408534       -0.03910349656427
C           43.80882899354868        0.00305289472315       -0.05816427089822
C           44.48813629333700       -1.18840498978216       -0.34598760179152
C           43.82312199716277       -2.42453541658429       -0.61333305845371
C           44.78453899180417       -3.31361218300058       -0.96266112526615
C           46.03172530002771       -2.61105769944522       -0.91532547295158
N           45.83640469525341       -1.31841043605208       -0.49404167917410
C           47.24771920287348       -3.15945287087464       -1.30268011352561
C           47.25587103269828       -4.53348100925832       -1.85612402526954
C           46.56099392020899       -4.82451969107878       -3.03222630184425
C           46.56829656475647       -6.10504098161779       -3.55537432574890
C           47.26765928357058       -7.12449675933376       -2.90267015151500
C           47.27336540591493       -8.44466474434704       -3.43580339576666
N           47.27746556394788       -9.51142285130212       -3.86706020756607
C           47.96106508989104       -6.83867973150087       -1.72286829651117
C           47.95671423053842       -5.55399791412932       -1.20975521488574
C           48.45577645717709       -2.48073910976687       -1.19660506856191
C           49.71274393312238       -3.01064325396110       -1.63282871274929
C           50.66149257162176       -2.11523417386758       -1.26562797766862
N           48.63207727450845       -1.25068732400553       -0.61247166011099
C           49.97903533685471       -1.03947264870437       -0.61847988447527
C           50.63997284975675        0.03908063674122       -0.01780985430706
C           49.96023936653950        1.10976848303567        0.57595242207653
C           50.62319069986169        2.19117918056647        1.23367389081991
C           49.66069948546370        3.07641133912737        1.58965535599722
C           48.41505384374947        2.53512459094309        1.13517971577369
N           48.61134488271382        1.30726574541840        0.55294639369647
C           47.19929556504943        3.20300179075613        1.22319151600004
C           47.18892920150111        4.57804873721394        1.77343666841126
C           46.46830256048386        4.86958238754293        2.93384932802105
C           46.46273197351341        6.15069387659223        3.45564584978868
C           47.17541745342361        7.17025957699787        2.81770425693894
C           47.17070455852941        8.49043843544920        3.35072271286148
N           47.17028778498566        9.55660025964037        3.78351044968930
C           47.89342290456646        6.88441564677731        1.65270154165724
C           47.90111011337697        5.59942057911450        1.14064094051018
C           45.99397254938187        2.64217707076483        0.82035472923628
C           44.73912814160823        3.33190262835026        0.85013053509010
C           43.79122904490378        2.43175550256102        0.49218607224133
C           44.47221464391114        1.20203110197787        0.23594839648754
N           45.81714309651204        1.34655035192489        0.39977389238334
H           42.75844626122440       -2.57718898640233       -0.54080669239635
H           44.66932383370816       -4.35253272991339       -1.22508107248123
H           46.02596226783053       -4.03366072486107       -3.54562620543765
H           46.03293220062572       -6.32239445285694       -4.47217256837295
H           48.50078979811659       -7.62763107844359       -1.21237782381452
H           48.48674703693687       -5.33768057520069       -0.28913091186548
H           49.84276357202815       -3.94438012498928       -2.15503754327526
H           51.72818368216083       -2.16512326018715       -1.41312802104711
H           51.68719413159933        2.25137653691009        1.39594325743120
H           49.77470778353047        4.00992090236005        2.11596189297081
H           45.92393895931526        4.07857642123829        3.43710991431271
H           45.90749509211138        6.36822168782295        4.36049754905472
H           48.44320783748374        7.67346734219199        1.15322399471719
H           48.45037063431250        5.38316121088378        0.23134793585622
H           44.60975839525769        4.37040909615202        1.10752248109150
H           42.72598440622150        2.57315551526231        0.40647425886792

          :  Hamiltonian                  GFN1-xTB          :
         :: total energy            -333.869494192379 Eh    ::
         :: gradient norm              0.000635793750 Eh/a0 ::
         :: HOMO-LUMO gap              0.057409585093 eV    ::
         :: SCC energy              -339.687325422630 Eh    ::
         :: repulsion energy           5.988506553485 Eh    ::

    * Orbital Energies and Occupations

         #    Occupation            Energy/Eh            Energy/eV
      -------------------------------------------------------------
         1        2.0000           -0.7850686             -21.3628
       ...           ...                  ...                  ...
       298        2.0000           -0.4091516             -11.1336
       299        2.0000           -0.4086079             -11.1188
       300        1.9961           -0.4027542             -10.9595
       301        1.9926           -0.4021422             -10.9428
       302        1.9923           -0.4021089             -10.9419
       303        1.9911           -0.4019610             -10.9379
       304        1.9644           -0.4006345             -10.9018
       305        1.9563           -0.4004357             -10.8964
       306        1.9490           -0.4002870             -10.8924
       307        1.9440           -0.4001952             -10.8899
       308        1.9395           -0.4001187             -10.8878
       309        1.9324           -0.4000107             -10.8848
       310        1.3466           -0.3975121             -10.8169 (HOMO)
       311        0.3656           -0.3954023             -10.7594 (LUMO)
       312        0.3352           -0.3953023             -10.7567
       313        0.2949           -0.3951580             -10.7528
       314                         -0.3571286              -9.7180
       315                         -0.3466956              -9.4341
       316                         -0.3447625              -9.3815
       317                         -0.3421535              -9.3105
       318                         -0.3417449              -9.2994
       319                         -0.3409051              -9.2765
       320                         -0.3233071              -8.7976
       321                         -0.3154189              -8.5830
       ...                                ...                  ...
       655                          1.5600504              42.4511
      -------------------------------------------------------------
                  HL-Gap            0.0021098 Eh            0.0574 eV

Wiberg/Mayer (AO) data.
largest (>0.10) Wiberg bond orders for each atom

     #   Z sym  total        # sym  WBO       # sym  WBO       # sym  WBO
 ---------------------------------------------------------------------------
     1  26 Fe   3.099 --     7 N    0.665    41 N    0.665    27 N    0.658
                            20 N    0.657
     2   6 C    3.917 --    40 C    1.364     3 C    1.363    42 H    0.970
     3   6 C    3.923 --     2 C    1.363     7 N    1.208     4 C    1.173
     4   6 C    3.959 --     5 C    1.650     3 C    1.173    43 H    0.975
     5   6 C    3.961 --     4 C    1.650     6 C    1.174    44 H    0.973
     6   6 C    3.920 --     8 C    1.312     7 N    1.225     5 C    1.174
     7   7 N    3.378 --     6 C    1.225     3 C    1.208     1 Fe   0.665
     8   6 C    3.920 --    17 C    1.333     6 C    1.312     9 C    1.030
     9   6 C    3.963 --    16 C    1.385    10 C    1.385     8 C    1.030
    10   6 C    3.987 --    11 C    1.463     9 C    1.385    45 H    0.971
                            15 C    0.102
    11   6 C    3.993 --    10 C    1.463    12 C    1.364    46 H    0.972
                            16 C    0.102
    12   6 C    3.984 --    15 C    1.365    11 C    1.364    13 C    1.098
    13   6 C    3.958 --    14 N    2.820    12 C    1.098
    14   7 N    2.973 --    13 C    2.820
    15   6 C    3.993 --    16 C    1.463    12 C    1.365    47 H    0.972
                            10 C    0.102
    16   6 C    3.987 --    15 C    1.463     9 C    1.385    48 H    0.971
                            11 C    0.102
    17   6 C    3.917 --     8 C    1.333    20 N    1.200    18 C    1.179
    18   6 C    3.956 --    19 C    1.638    17 C    1.179    49 H    0.973
    19   6 C    3.960 --    18 C    1.638    21 C    1.188    50 H    0.973
    20   7 N    3.377 --    21 C    1.246    17 C    1.200     1 Fe   0.657
    21   6 C    3.902 --    22 C    1.248    20 N    1.246    19 C    1.188
    22   6 C    3.918 --    21 C    1.248    23 C    1.248   120 C    1.208
    23   6 C    3.902 --    22 C    1.248    27 N    1.247    24 C    1.188
    24   6 C    3.960 --    25 C    1.638    23 C    1.188    51 H    0.973
    25   6 C    3.956 --    24 C    1.638    26 C    1.179    52 H    0.973
    26   6 C    3.917 --    28 C    1.334    27 N    1.199    25 C    1.179
    27   7 N    3.377 --    23 C    1.247    26 C    1.199     1 Fe   0.658
    28   6 C    3.920 --    26 C    1.334    37 C    1.310    29 C    1.031
    29   6 C    3.963 --    36 C    1.385    30 C    1.385    28 C    1.031
    30   6 C    3.987 --    31 C    1.464    29 C    1.385    53 H    0.971
                            35 C    0.102
    31   6 C    3.993 --    30 C    1.464    32 C    1.364    54 H    0.972
                            36 C    0.102
    32   6 C    3.984 --    35 C    1.365    31 C    1.364    33 C    1.098
    33   6 C    3.958 --    34 N    2.820    32 C    1.098
    34   7 N    2.973 --    33 C    2.820
    35   6 C    3.993 --    36 C    1.463    32 C    1.365    55 H    0.972
                            30 C    0.102
    36   6 C    3.987 --    35 C    1.463    29 C    1.385    56 H    0.971
                            31 C    0.102
    37   6 C    3.920 --    28 C    1.310    41 N    1.226    38 C    1.175
    38   6 C    3.961 --    39 C    1.649    37 C    1.175    57 H    0.973
    39   6 C    3.958 --    38 C    1.649    40 C    1.173    58 H    0.975
    40   6 C    3.923 --     2 C    1.364    41 N    1.207    39 C    1.173
    41   7 N    3.378 --    37 C    1.226    40 C    1.207     1 Fe   0.665
    42   1 H    1.000 --     2 C    0.970
    43   1 H    0.997 --     4 C    0.975
    44   1 H    1.004 --     5 C    0.973
    45   1 H    1.003 --    10 C    0.971
    46   1 H    1.000 --    11 C    0.972
    47   1 H    1.000 --    15 C    0.972
    48   1 H    1.003 --    16 C    0.971
    49   1 H    1.004 --    18 C    0.973
    50   1 H    1.001 --    19 C    0.973
    51   1 H    1.001 --    24 C    0.973
    52   1 H    1.004 --    25 C    0.973
    53   1 H    1.003 --    30 C    0.971
    54   1 H    1.000 --    31 C    0.972
    55   1 H    1.000 --    35 C    0.972
    56   1 H    1.003 --    36 C    0.971
    57   1 H    1.004 --    38 C    0.973
    58   1 H    0.997 --    39 C    0.975
    59  26 Fe   3.130 --    65 N    0.672    99 N    0.669    85 N    0.665
                            78 N    0.662
    60   6 C    3.925 --    98 C    1.364    61 C    1.364   100 H    0.970
    61   6 C    3.922 --    60 C    1.364    65 N    1.208    62 C    1.173
    62   6 C    3.959 --    63 C    1.650    61 C    1.173   101 H    0.975
    63   6 C    3.961 --    62 C    1.650    64 C    1.174   102 H    0.973
    64   6 C    3.920 --    66 C    1.315    65 N    1.223    63 C    1.174
    65   7 N    3.384 --    64 C    1.223    61 C    1.208    59 Fe   0.672
    66   6 C    3.927 --    75 C    1.332    64 C    1.315    67 C    1.029
    67   6 C    3.963 --    74 C    1.386    68 C    1.385    66 C    1.029
    68   6 C    3.987 --    69 C    1.463    67 C    1.385   103 H    0.971
                            73 C    0.102
    69   6 C    3.993 --    68 C    1.463    70 C    1.364   104 H    0.972
                            74 C    0.102
    70   6 C    3.985 --    73 C    1.365    69 C    1.364    71 C    1.098
    71   6 C    3.958 --    72 N    2.820    70 C    1.098
    72   7 N    2.973 --    71 C    2.820
    73   6 C    3.993 --    74 C    1.463    70 C    1.365   105 H    0.972
                            68 C    0.102
    74   6 C    3.987 --    73 C    1.463    67 C    1.386   106 H    0.971
                            69 C    0.102
    75   6 C    3.916 --    66 C    1.332    78 N    1.202    76 C    1.179
    76   6 C    3.957 --    77 C    1.639    75 C    1.179   107 H    0.973
    77   6 C    3.959 --    76 C    1.639    79 C    1.187   108 H    0.973
    78   7 N    3.382 --    79 C    1.241    75 C    1.202    59 Fe   0.662
    79   6 C    3.903 --    80 C    1.255    78 N    1.241    77 C    1.187
    80   6 C    3.928 --    79 C    1.255    81 C    1.255   128 C    1.195
    81   6 C    3.903 --    80 C    1.255    85 N    1.242    82 C    1.187
    82   6 C    3.959 --    83 C    1.639    81 C    1.187   109 H    0.973
    83   6 C    3.957 --    82 C    1.639    84 C    1.179   110 H    0.973
    84   6 C    3.916 --    86 C    1.333    85 N    1.201    83 C    1.179
    85   7 N    3.383 --    81 C    1.242    84 C    1.201    59 Fe   0.665
    86   6 C    3.927 --    84 C    1.333    95 C    1.313    87 C    1.029
    87   6 C    3.963 --    94 C    1.386    88 C    1.385    86 C    1.029
    88   6 C    3.987 --    89 C    1.464    87 C    1.385   111 H    0.971
                            93 C    0.102
    89   6 C    3.993 --    88 C    1.464    90 C    1.364   112 H    0.972
                            94 C    0.102
    90   6 C    3.985 --    93 C    1.365    89 C    1.364    91 C    1.098
    91   6 C    3.958 --    92 N    2.820    90 C    1.098
    92   7 N    2.973 --    91 C    2.820
    93   6 C    3.993 --    94 C    1.463    90 C    1.365   113 H    0.972
                            88 C    0.102
    94   6 C    3.987 --    93 C    1.463    87 C    1.386   114 H    0.971
                            89 C    0.102
    95   6 C    3.920 --    86 C    1.313    99 N    1.225    96 C    1.174
    96   6 C    3.961 --    97 C    1.650    95 C    1.174   115 H    0.973
    97   6 C    3.958 --    96 C    1.650    98 C    1.173   116 H    0.975
    98   6 C    3.923 --    60 C    1.364    99 N    1.207    97 C    1.173
    99   7 N    3.383 --    95 C    1.225    98 C    1.207    59 Fe   0.669
   100   1 H    1.000 --    60 C    0.970
   101   1 H    0.997 --    62 C    0.975
   102   1 H    1.004 --    63 C    0.973
   103   1 H    1.003 --    68 C    0.971
   104   1 H    1.000 --    69 C    0.972
   105   1 H    1.000 --    73 C    0.972
   106   1 H    1.003 --    74 C    0.971
   107   1 H    1.004 --    76 C    0.973
   108   1 H    1.001 --    77 C    0.973
   109   1 H    1.001 --    82 C    0.973
   110   1 H    1.004 --    83 C    0.973
   111   1 H    1.003 --    88 C    0.971
   112   1 H    1.000 --    89 C    0.972
   113   1 H    1.000 --    93 C    0.972
   114   1 H    1.003 --    94 C    0.971
   115   1 H    1.004 --    96 C    0.973
   116   1 H    0.997 --    97 C    0.975
   117   6 C    3.914 --   118 C    2.333   121 C    1.358   120 C    0.186
   118   6 C    3.912 --   117 C    2.333   119 C    1.357   122 C    0.185
   119   6 C    3.922 --   120 C    2.417   118 C    1.357
   120   6 C    3.875 --   119 C    2.417    22 C    1.208   117 C    0.186
   121   6 C    3.918 --   122 C    2.413   117 C    1.358
   122   6 C    3.876 --   121 C    2.413   130 C    1.212   118 C    0.185
   123   6 C    3.912 --   124 C    2.348   127 C    1.345   126 C    0.186
   124   6 C    3.915 --   123 C    2.348   125 C    1.347   128 C    0.186
   125   6 C    3.920 --   126 C    2.428   124 C    1.347
   126   6 C    3.879 --   125 C    2.428   150 C    1.202   123 C    0.186
   127   6 C    3.926 --   128 C    2.433   123 C    1.345
   128   6 C    3.877 --   127 C    2.433    80 C    1.195   124 C    0.186
   129  26 Fe   3.057 --   155 N    0.650   148 N    0.650   135 N    0.649
                           169 N    0.649
   130   6 C    3.905 --   131 C    1.245   168 C    1.244   122 C    1.212
   131   6 C    3.903 --   135 N    1.249   130 C    1.245   132 C    1.190
   132   6 C    3.959 --   133 C    1.635   131 C    1.190   170 H    0.973
   133   6 C    3.957 --   132 C    1.635   134 C    1.182   171 H    0.973
   134   6 C    3.915 --   136 C    1.324   135 N    1.204   133 C    1.182
   135   7 N    3.368 --   131 C    1.249   134 C    1.204   129 Fe   0.649
   136   6 C    3.913 --   134 C    1.324   145 C    1.320   137 C    1.030
   137   6 C    3.963 --   144 C    1.385   138 C    1.385   136 C    1.030
   138   6 C    3.987 --   139 C    1.463   137 C    1.385   172 H    0.971
                           143 C    0.102
   139   6 C    3.993 --   138 C    1.463   140 C    1.365   173 H    0.972
                           144 C    0.102
   140   6 C    3.985 --   143 C    1.365   139 C    1.365   141 C    1.097
   141   6 C    3.958 --   142 N    2.821   140 C    1.097
   142   7 N    2.974 --   141 C    2.821
   143   6 C    3.993 --   144 C    1.463   140 C    1.365   174 H    0.972
                           138 C    0.102
   144   6 C    3.987 --   143 C    1.463   137 C    1.385   175 H    0.971
                           139 C    0.102
   145   6 C    3.914 --   136 C    1.320   148 N    1.207   146 C    1.182
   146   6 C    3.958 --   147 C    1.635   145 C    1.182   176 H    0.973
   147   6 C    3.959 --   146 C    1.635   149 C    1.190   177 H    0.973
   148   7 N    3.368 --   149 C    1.245   145 C    1.207   129 Fe   0.650
   149   6 C    3.904 --   150 C    1.250   148 N    1.245   147 C    1.190
   150   6 C    3.907 --   149 C    1.250   151 C    1.250   126 C    1.202
   151   6 C    3.904 --   150 C    1.250   155 N    1.244   152 C    1.190
   152   6 C    3.959 --   153 C    1.634   151 C    1.190   178 H    0.973
   153   6 C    3.958 --   152 C    1.634   154 C    1.182   179 H    0.973
   154   6 C    3.914 --   156 C    1.320   155 N    1.207   153 C    1.182
   155   7 N    3.368 --   151 C    1.244   154 C    1.207   129 Fe   0.650
   156   6 C    3.913 --   165 C    1.324   154 C    1.320   157 C    1.031
   157   6 C    3.963 --   158 C    1.385   164 C    1.385   156 C    1.031
   158   6 C    3.987 --   159 C    1.463   157 C    1.385   180 H    0.971
                           163 C    0.102
   159   6 C    3.993 --   158 C    1.463   160 C    1.365   181 H    0.972
                           164 C    0.102
   160   6 C    3.984 --   159 C    1.365   163 C    1.364   161 C    1.098
   161   6 C    3.958 --   162 N    2.821   160 C    1.098
   162   7 N    2.974 --   161 C    2.821
   163   6 C    3.993 --   164 C    1.463   160 C    1.364   182 H    0.972
                           158 C    0.102
   164   6 C    3.987 --   163 C    1.463   157 C    1.385   183 H    0.971
                           159 C    0.102
   165   6 C    3.915 --   156 C    1.324   169 N    1.204   166 C    1.182
   166   6 C    3.957 --   167 C    1.634   165 C    1.182   184 H    0.973
   167   6 C    3.959 --   166 C    1.634   168 C    1.191   185 H    0.973
   168   6 C    3.903 --   169 N    1.249   130 C    1.244   167 C    1.191
   169   7 N    3.368 --   168 C    1.249   165 C    1.204   129 Fe   0.649
   170   1 H    1.001 --   132 C    0.973
   171   1 H    1.003 --   133 C    0.973
   172   1 H    1.003 --   138 C    0.971
   173   1 H    1.000 --   139 C    0.972
   174   1 H    1.000 --   143 C    0.972
   175   1 H    1.003 --   144 C    0.971
   176   1 H    1.003 --   146 C    0.973
   177   1 H    1.001 --   147 C    0.973
   178   1 H    1.001 --   152 C    0.973
   179   1 H    1.004 --   153 C    0.973
   180   1 H    1.003 --   158 C    0.971
   181   1 H    1.000 --   159 C    0.972
   182   1 H    1.000 --   163 C    0.972
   183   1 H    1.003 --   164 C    0.971
   184   1 H    1.003 --   166 C    0.973
   185   1 H    1.001 --   167 C    0.973
 ---------------------------------------------------------------------------

           -------------------------------------------------
          | TOTAL ENERGY             -333.869494192379 Eh   |
          | GRADIENT NORM               0.000635793750 Eh/α |
          | HOMO-LUMO GAP               0.057409585093 eV   |
           -------------------------------------------------

 * finished run on 2022/07/30 at 00:26:00.630
