   * xtb version 6.5.1 (b24c23e) compiled by 'conda@728c89f4b128' on 2022-07-12
          program call               : xtb Ni_PhCHO_C6_3.xyz --gfn 1 --opt -T 48

   ID    Z sym.   atoms
    1   28 Ni     1, 61, 133
    2    6 C      2-6, 8-13, 15-19, 21-26, 28-33, 35-40, 62-66, 68-73, 75-79,
                  81-86, 88-93, 95-100, 121-132, 134-138, 140-145, 147-151,
                  153-158, 160-165, 167-172
    3    7 N      7, 20, 27, 41, 67, 80, 87, 101, 139, 152, 159, 173
    4    8 O      14, 34, 74, 94, 146, 166
    5    1 H      42-60, 102-120, 174-191

          :  Hamiltonian                  GFN1-xTB          :
 * total energy  :  -349.0424977 Eh     change       -0.1660857E-07 Eh
 * total energy  :  -349.2316374 Eh     change       -0.1891397E+00 Eh
 * total energy  :  -349.3268986 Eh     change       -0.9526119E-01 Eh
 * total energy  :  -349.3905047 Eh     change       -0.6360611E-01 Eh
 * total energy  :  -349.4537924 Eh     change       -0.6328774E-01 Eh
 * total energy  :  -349.5026637 Eh     change       -0.4887133E-01 Eh
 * total energy  :  -349.5299071 Eh     change       -0.2724338E-01 Eh
 * total energy  :  -349.5513809 Eh     change       -0.2147379E-01 Eh
 * total energy  :  -349.5659970 Eh     change       -0.1461614E-01 Eh
 * total energy  :  -349.5782834 Eh     change       -0.1228634E-01 Eh
 * total energy  :  -349.6825403 Eh     change       -0.1252434E-04 Eh
 * total energy  :  -349.6825157 Eh     change        0.2466252E-04 Eh
 * total energy  :  -349.6825432 Eh     change       -0.2752661E-04 Eh
 * total energy  :  -349.6825422 Eh     change        0.9850420E-06 Eh
 * total energy  :  -349.6825354 Eh     change        0.6837276E-05 Eh
 * total energy  :  -349.6825420 Eh     change       -0.6664426E-05 Eh
 * total energy  :  -349.6825243 Eh     change        0.1769279E-04 Eh
 * total energy  :  -349.6825494 Eh     change       -0.2501376E-04 Eh
 * total energy  :  -349.6825526 Eh     change       -0.3241700E-05 Eh
   *** GEOMETRY OPTIMIZATION CONVERGED AFTER 75 ITERATIONS ***

 final structure:
================
191
 xtb: 6.5.1 (b24c23e)
Ni          29.47559974134881        0.00916622175154        0.00311912985299
C           26.07990175781346        0.05249025092673       -0.05479601174784
C           26.74062552859039        1.26081130770881        0.01351170677703
C           26.06785165900996        2.52237726403177        0.07439157407210
C           27.02737020787803        3.46735492118021        0.20485216944343
C           28.28675113958584        2.78163806242800        0.21520075276374
N           28.10087337235044        1.42797553637957        0.08894303542338
C           29.50738710872159        3.41440023275771        0.41044717683893
C           29.52055734425447        4.88671626644431        0.58412380899924
C           29.91700165091822        5.45319910131807        1.79867540771325
C           29.92344833540817        6.82577723105053        1.95766001032888
C           29.53910667959413        7.66200298231192        0.90433680815303
C           29.55694410287283        9.12365124740469        1.09813480625337
O           29.88643675868136        9.65829732481873        2.12565374701739
C           29.14557193584544        7.09613978866841       -0.31061929734068
C           29.13402974041866        5.72145984409634       -0.46748803512633
C           30.71467899580801        2.73039402792205        0.44742529679830
C           31.98313423429139        3.37209828370075        0.61751061057421
C           32.92677693013770        2.40656151666007        0.51294513717337
N           30.88101087730378        1.37875254572024        0.24460527368315
C           32.23405686819503        1.18082318419886        0.27247335788454
C           32.89178598943391       -0.03094391199432        0.04430126864523
C           32.21068295821619       -1.22852387293916       -0.18890587348816
C           32.87825928379316       -2.46549159475663       -0.44233161626319
C           31.91468277131217       -3.40947821507057       -0.56210630892378
C           30.66042744662867       -2.74567881135715       -0.37270247583022
N           30.85343012401724       -1.39774866757743       -0.17073005328401
C           29.43533557704026       -3.39876305852670       -0.38825197701670
C           29.41811755102913       -4.87071521225501       -0.55620978345256
C           28.80499495202380       -5.44562718330174       -1.67264602032837
C           28.78708129880757       -6.81990460673567       -1.83191423895700
C           29.37745920276102       -7.64687199656747       -0.87336426989601
C           29.36740645875782       -9.11441695723585       -1.01691347780181
O           29.85846707818958       -9.86816080418886       -0.21634774436109
C           29.98940959790660       -7.07145910287726        0.24510667538964
C           30.01237209054544       -5.69880487468411        0.40052731618178
C           28.22441246102501       -2.73147264409077       -0.25559643732825
C           26.95029653224956       -3.38888403611327       -0.22964698487150
C           26.01098558378801       -2.41888339022428       -0.14145677143920
C           26.71201129778221       -1.17201695475938       -0.10105973607533
N           28.06912073443710       -1.37251289850332       -0.14765029442972
H           24.99632605872437        0.06584823934404       -0.06673290745552
H           24.99754840407929        2.64657115328008        0.03261014489162
H           26.90593911847569        4.53397017407294        0.30103847410493
H           30.20523979526448        4.80665860833951        2.61975808625888
H           30.22410022681748        7.27442582203173        2.89837124878254
H           29.23652775026394        9.70539990135504        0.20760058676864
H           28.84914498501536        7.73797956361519       -1.13387619852468
H           28.83791740552323        5.28421146020924       -1.41436340909713
H           32.12403949957492        4.42787256195437        0.78104507493337
H           33.99841260669971        2.50125659043696        0.58054184590703
H           33.94745492101084       -2.58005625176343       -0.51742290377404
H           32.03194103879328       -4.46078860177906       -0.76771531174785
H           28.35547320316525       -4.80525214144595       -2.42320162177677
H           28.31368163443482       -7.25805736752676       -2.70455583318470
H           28.86220744986528       -9.47898624070429       -1.93668840069686
H           30.44241472140552       -7.72179827772821        0.98568091052041
H           30.47762726701827       -5.25568684285589        1.27373972841779
H           26.80690298454992       -4.45643461220045       -0.26773696039783
H           24.93796610907527       -2.51797510277996       -0.10234735639991
Ni          61.48598962518422       -0.03439627415511       -0.03328362726861
C           64.88245926012571       -0.06888359773935       -0.08960666327184
C           64.22251354648984       -1.27604703559174       -0.18043557440614
C           64.89695494862657       -2.53439408614144       -0.27819508602946
C           63.93787965594765       -3.48870198415259       -0.28248651685503
C           62.67716178013465       -2.81063193942444       -0.19780513272664
N           62.86191273778073       -1.45214927214855       -0.13966359446114
C           61.45456512739856       -3.46406050566579       -0.11665812454516
C           61.44075880392861       -4.94614193014456       -0.14796735892041
C           61.01317540474839       -5.67287632357158        0.96671007206412
C           61.00500512618839       -7.05422376111684        0.93635435855705
C           61.41907945156404       -7.73924401413428       -0.21073793091445
C           61.39860591924030       -9.21361153232293       -0.21912682512402
O           61.04065017497729       -9.88304439654554        0.71574657973058
C           61.84387047146352       -7.01320115151881       -1.32591188408431
C           61.85674862519642       -5.62997452959811       -1.29313650417441
C           60.24492939475619       -2.79152979074748       -0.01018150251587
C           58.97501356399226       -3.45112843779510        0.03526590061892
C           58.03124478900009       -2.48054025863806        0.06141136289288
N           60.07935792312740       -1.42480167677082       -0.01096350461251
C           58.72553713865945       -1.23282384685170        0.02539847032671
C           58.06899613488034        0.00010301986570       -0.00757853563837
C           58.75037016701138        1.21934658339613       -0.03856736447059
C           58.08239353387449        2.48079531659823       -0.09001350120406
C           59.04595889946719        3.43184585527582       -0.06332028493821
C           60.30070316327478        2.74654576050079        0.01285460512400
N           60.10780967682236        1.38360303546732        0.00301999232708
C           61.52632867204524        3.39488072067630        0.08420619220549
C           61.54331807691239        4.87539752576295        0.14020353824394
C           62.14508976075502        5.61325874199321       -0.88266949785842
C           62.16383550487874        6.99579290387574       -0.83125678633163
C           61.58521075532398        7.66750359976144        0.24818688345356
C           61.59719450291983        9.13982883968879        0.32981018088351
O           61.11542994991670        9.76311179784196        1.24059220907194
C           60.98380917274827        6.92886430893963        1.27252322974857
C           60.96045780559400        5.54853670342982        1.21788751184749
C           62.73784037760753        2.71596218106954        0.10351555717054
C           64.01265509107758        3.36359261852563        0.21205410325102
C           64.95183964091719        2.39119845072709        0.15580849678026
C           64.25014127507042        1.15076800686325        0.02681965465593
N           62.89292487196163        1.35547719220922        0.01570488347529
H           65.96606273172578       -0.08023363965434       -0.10157626127133
H           65.96786781086885       -2.65148955697489       -0.32457044288308
H           64.06032331306994       -4.55866226666976       -0.32536474236532
H           60.70178421506034       -5.14411146549188        1.86042482777707
H           60.68004349940306       -7.62670260539888        1.79849026144786
H           61.74448140817900       -9.66879003030619       -1.17167130504095
H           62.16339063302053       -7.53697255166891       -2.22098453263624
H           62.17669341364416       -5.06804354590290       -2.16337189986450
H           58.83358524515108       -4.51941292975528        0.03287694397347
H           56.95877864199102       -2.58389098607828        0.09401839198005
H           57.01297988911862        2.60558250727634       -0.14215976516444
H           58.92840693912851        4.50239046560692       -0.10044846843280
H           62.58531605482501        5.09445065046995       -1.72678165561775
H           62.62885475779997        7.56147426692820       -1.63210686495779
H           62.09361590731753        9.63988258779204       -0.52903898907219
H           60.53957754433927        7.45911372374233        2.10804217389924
H           60.50388006618203        4.97783226982025        2.01860200242906
H           64.15672881984273        4.42583087335075        0.32399570956741
H           66.02516672185877        2.48405076287511        0.20123208035123
C           38.09333573229939       -0.06064158378157        0.02975993825632
C           36.86538872127224       -0.05786679119999        0.03680443545045
C           35.52043665607753       -0.05223257921905        0.04163513192518
C           34.29705087537587       -0.04423528511673        0.04491845494122
C           39.43813094313772       -0.05941095170746        0.02283854384989
C           40.66169351693637       -0.05536155267831        0.01710152935352
C           54.09476328267097        0.02276011552510       -0.02000036665457
C           52.86691675316684        0.02301692031154       -0.02190458847119
C           51.52180884927377        0.01902475342402       -0.02321669634501
C           50.29838186900445        0.01326539321745       -0.02183976871506
C           55.44004740814017        0.02025409386942       -0.01270758674094
C           56.66330212011176        0.01311867703901       -0.00900396966940
Ni          45.47994987100367       -0.02305478054638        0.00397703004706
C           42.06589279316638       -0.04678208366394        0.01297012616197
C           42.73196727185206        1.17064556007351        0.18519022152945
C           42.05777604259059        2.42139629623788        0.32592428433162
C           43.00721577510853        3.34449741219536        0.61423812257911
C           44.25786994766666        2.65034693280763        0.65748468050662
N           44.08180538653820        1.32167051100920        0.34578166284506
C           45.45988989934751        3.23699967182951        1.03263994007054
C           45.44962888367206        4.64739198296887        1.48315506789639
C           46.18265021560031        5.61681464709245        0.79207721041014
C           46.16878986441437        6.93258523979742        1.21305917062778
C           45.42776622901372        7.30775456280868        2.33850700229240
C           45.43273765840636        8.71810788014451        2.76969923115464
O           46.04263878110174        9.58812651203508        2.20306842489464
C           44.69760075017741        6.33932001215774        3.03147696571259
C           44.70594220471903        5.02312079183905        2.60522685239798
C           46.67063683546788        2.55691084882015        1.00205055350302
C           47.91506575246928        3.11670801329610        1.43359268894677
C           48.87608922790530        2.20914286637557        1.13509515373097
N           46.86234800023286        1.29290609465702        0.49275931440840
C           48.21506389490266        1.09516499868267        0.53420038338994
C           48.89381602449352        0.00421114608723       -0.01692084040637
C           48.22541604654675       -1.09766122418371       -0.55915024683159
C           48.89635762232073       -2.20268000099336       -1.16536463224310
C           47.94663635795649       -3.12805713268294       -1.44530759750013
C           46.69927831352045       -2.58739759478964       -0.99831996583526
N           46.87684270903549       -1.31790089518970       -0.49799381572808
C           45.49969478817864       -3.28806397300593       -1.00895433908392
C           45.50909585592855       -4.70289719804037       -1.44500031158706
C           46.27022205031869       -5.64897526556898       -0.75288434077841
C           46.27767938614474       -6.97257630717512       -1.15554793430186
C           45.52872474962656       -7.37495634600438       -2.26389296579424
C           45.52215769608838       -8.77870314039903       -2.71581969547574
O           44.89646528818881       -9.17197038923482       -3.66659444909781
C           44.77001727875736       -6.42751282061025       -2.95907131366233
C           44.75745115015458       -5.10725434963385       -2.55243761510062
C           44.29183652598095       -2.71702356080072       -0.62868042345292
C           43.05108951805890       -3.42820552734817       -0.57441883048102
C           42.09005971435325       -2.51605822673558       -0.28998474334431
C           42.74757092184041       -1.25529656045820       -0.15988778294840
N           44.09869338590958       -1.38871217995177       -0.32498927046494
H           40.99409450118629        2.55930141659495        0.21825540701550
H           42.88192865867413        4.40201685232645        0.77982399460553
H           46.74876203851068        5.33065299099226       -0.08709986100230
H           46.72928353250479        7.69234709400676        0.67900832342237
H           44.81975532586843        8.92064852313118        3.67368837970033
H           44.12305825560031        6.62133918213703        3.90777895268415
H           44.14732069198642        4.27109728389612        3.15100761755487
H           48.02884669791845        4.07888240140295        1.90545701665455
H           49.93953940764774        2.27469556935434        1.29875880371574
H           49.95818355860406       -2.25061606187004       -1.34503082242508
H           48.06976629836549       -4.08995867570754       -1.91546728627622
H           46.84327932685352       -5.34123352779721        0.11450533340121
H           46.86612970810043       -7.70192978026143       -0.60845641428815
H           46.15043157167506       -9.45838538182802       -2.10161411885686
H           44.19480170258625       -6.74854489257549       -3.82085524531723
H           44.17763001063503       -4.37282190502800       -3.09993101327629
H           42.93950615462761       -4.48847222984040       -0.73179385222905
H           41.02871490986865       -2.66755482376347       -0.17765355130105

          :  Hamiltonian                  GFN1-xTB          :
         :: total energy            -349.682552594606 Eh    ::
         :: gradient norm              0.000452365373 Eh/a0 ::
         :: HOMO-LUMO gap              1.066117428576 eV    ::
         :: SCC energy              -355.203508452006 Eh    ::
         :: repulsion energy           5.692887806034 Eh    ::

    * Orbital Energies and Occupations

         #    Occupation            Energy/Eh            Energy/eV
      -------------------------------------------------------------
         1        2.0000           -0.7958395             -21.6559
       ...           ...                  ...                  ...
       307        2.0000           -0.4116434             -11.2014
       308        2.0000           -0.4115968             -11.2001
       309        2.0000           -0.4108817             -11.1807
       310        2.0000           -0.4108412             -11.1796
       311        2.0000           -0.4105526             -11.1717
       312        2.0000           -0.4104420             -11.1687
       313        2.0000           -0.4098504             -11.1526
       314        2.0000           -0.4097986             -11.1512
       315        2.0000           -0.4097725             -11.1505
       316        2.0000           -0.4097222             -11.1491
       317        2.0000           -0.4087883             -11.1237
       318        2.0000           -0.4028905             -10.9632
       319        2.0000           -0.3957054             -10.7677 (HOMO)
       320                         -0.3565263              -9.7016 (LUMO)
       321                         -0.3480965              -9.4722
       322                         -0.3467709              -9.4361
       323                         -0.3457382              -9.4080
       324                         -0.3456804              -9.4064
       325                         -0.3429028              -9.3309
       326                         -0.3427001              -9.3253
       327                         -0.3422251              -9.3124
       328                         -0.3418098              -9.3011
       329                         -0.3304310              -8.9915
       330                         -0.3291380              -8.9563
       ...                                ...                  ...
       667                          1.5674864              42.6535
      -------------------------------------------------------------
                  HL-Gap            0.0391791 Eh            1.0661 eV

Wiberg/Mayer (AO) data.
largest (>0.10) Wiberg bond orders for each atom

     #   Z sym  total        # sym  WBO       # sym  WBO       # sym  WBO
 ---------------------------------------------------------------------------
     1  28 Ni   3.005 --     7 N    0.663    41 N    0.663    27 N    0.660
                            20 N    0.660
     2   6 C    3.935 --    40 C    1.364     3 C    1.364    42 H    0.970
     3   6 C    3.922 --     2 C    1.364     7 N    1.213     4 C    1.174
     4   6 C    3.960 --     5 C    1.651     3 C    1.174    43 H    0.975
     5   6 C    3.962 --     4 C    1.651     6 C    1.176    44 H    0.972
     6   6 C    3.919 --     8 C    1.322     7 N    1.223     5 C    1.176
     7   7 N    3.402 --     6 C    1.223     3 C    1.213     1 Ni   0.663
     8   6 C    3.938 --    17 C    1.329     6 C    1.322     9 C    1.025
     9   6 C    3.986 --    16 C    1.385    10 C    1.383     8 C    1.025
    10   6 C    3.988 --    11 C    1.470     9 C    1.383    45 H    0.972
                            15 C    0.100
    11   6 C    3.988 --    10 C    1.470    12 C    1.371    46 H    0.968
                            16 C    0.101
    12   6 C    3.985 --    15 C    1.379    11 C    1.371    13 C    1.048
    13   6 C    3.864 --    14 O    1.809    12 C    1.048    47 H    0.942
    14   8 O    2.005 --    13 C    1.809
    15   6 C    3.993 --    16 C    1.464    12 C    1.379    48 H    0.971
                            10 C    0.100
    16   6 C    3.988 --    15 C    1.464     9 C    1.385    49 H    0.972
                            11 C    0.101
    17   6 C    3.914 --     8 C    1.329    20 N    1.206    18 C    1.183
    18   6 C    3.958 --    19 C    1.638    17 C    1.183    50 H    0.972
    19   6 C    3.961 --    18 C    1.638    21 C    1.190    51 H    0.973
    20   7 N    3.406 --    21 C    1.240    17 C    1.206     1 Ni   0.660
    21   6 C    3.902 --    22 C    1.263    20 N    1.240    19 C    1.190
    22   6 C    3.944 --    23 C    1.264    21 C    1.263   124 C    1.184
    23   6 C    3.902 --    22 C    1.264    27 N    1.239    24 C    1.190
    24   6 C    3.961 --    25 C    1.637    23 C    1.190    52 H    0.973
    25   6 C    3.958 --    24 C    1.637    26 C    1.183    53 H    0.972
    26   6 C    3.914 --    28 C    1.327    27 N    1.207    25 C    1.183
    27   7 N    3.406 --    23 C    1.239    26 C    1.207     1 Ni   0.660
    28   6 C    3.938 --    26 C    1.327    37 C    1.321    29 C    1.029
    29   6 C    3.986 --    30 C    1.384    36 C    1.382    28 C    1.029
    30   6 C    3.988 --    31 C    1.465    29 C    1.384    54 H    0.972
                            35 C    0.101
    31   6 C    3.993 --    30 C    1.465    32 C    1.379    55 H    0.971
                            36 C    0.100
    32   6 C    3.984 --    31 C    1.379    35 C    1.370    33 C    1.048
    33   6 C    3.864 --    34 O    1.809    32 C    1.048    56 H    0.942
    34   8 O    2.005 --    33 C    1.809
    35   6 C    3.988 --    36 C    1.470    32 C    1.370    57 H    0.968
                            30 C    0.101
    36   6 C    3.988 --    35 C    1.470    29 C    1.382    58 H    0.972
                            31 C    0.100
    37   6 C    3.919 --    28 C    1.321    41 N    1.223    38 C    1.176
    38   6 C    3.963 --    39 C    1.650    37 C    1.176    59 H    0.972
    39   6 C    3.959 --    38 C    1.650    40 C    1.174    60 H    0.975
    40   6 C    3.922 --     2 C    1.364    41 N    1.213    39 C    1.174
    41   7 N    3.402 --    37 C    1.223    40 C    1.213     1 Ni   0.663
    42   1 H    1.000 --     2 C    0.970
    43   1 H    0.997 --     4 C    0.975
    44   1 H    1.004 --     5 C    0.972
    45   1 H    1.003 --    10 C    0.972
    46   1 H    1.005 --    11 C    0.968
    47   1 H    1.010 --    13 C    0.942
    48   1 H    1.000 --    15 C    0.971
    49   1 H    1.003 --    16 C    0.972
    50   1 H    1.004 --    18 C    0.972
    51   1 H    1.001 --    19 C    0.973
    52   1 H    1.001 --    24 C    0.973
    53   1 H    1.003 --    25 C    0.972
    54   1 H    1.004 --    30 C    0.972
    55   1 H    1.000 --    31 C    0.971
    56   1 H    1.010 --    33 C    0.942
    57   1 H    1.005 --    35 C    0.968
    58   1 H    1.004 --    36 C    0.972
    59   1 H    1.004 --    38 C    0.972
    60   1 H    0.997 --    39 C    0.975
    61  28 Ni   3.004 --   101 N    0.663    67 N    0.663    87 N    0.660
                            80 N    0.660
    62   6 C    3.935 --   100 C    1.364    63 C    1.364   102 H    0.970
    63   6 C    3.922 --    62 C    1.364    67 N    1.213    64 C    1.174
    64   6 C    3.960 --    65 C    1.651    63 C    1.174   103 H    0.975
    65   6 C    3.962 --    64 C    1.651    66 C    1.176   104 H    0.972
    66   6 C    3.919 --    68 C    1.322    67 N    1.223    65 C    1.176
    67   7 N    3.402 --    66 C    1.223    63 C    1.213    61 Ni   0.663
    68   6 C    3.938 --    77 C    1.328    66 C    1.322    69 C    1.026
    69   6 C    3.986 --    76 C    1.385    70 C    1.383    68 C    1.026
    70   6 C    3.988 --    71 C    1.470    69 C    1.383   105 H    0.972
                            75 C    0.100
    71   6 C    3.988 --    70 C    1.470    72 C    1.371   106 H    0.968
                            76 C    0.101
    72   6 C    3.984 --    75 C    1.379    71 C    1.371    73 C    1.048
    73   6 C    3.864 --    74 O    1.809    72 C    1.048   107 H    0.942
    74   8 O    2.005 --    73 C    1.809
    75   6 C    3.993 --    76 C    1.464    72 C    1.379   108 H    0.971
                            70 C    0.100
    76   6 C    3.988 --    75 C    1.464    69 C    1.385   109 H    0.972
                            71 C    0.101
    77   6 C    3.914 --    68 C    1.328    80 N    1.207    78 C    1.182
    78   6 C    3.959 --    79 C    1.638    77 C    1.182   110 H    0.972
    79   6 C    3.961 --    78 C    1.638    81 C    1.190   111 H    0.973
    80   7 N    3.406 --    81 C    1.239    77 C    1.207    61 Ni   0.660
    81   6 C    3.902 --    82 C    1.264    80 N    1.239    79 C    1.190
    82   6 C    3.945 --    83 C    1.265    81 C    1.264   132 C    1.182
    83   6 C    3.903 --    82 C    1.265    87 N    1.238    84 C    1.190
    84   6 C    3.961 --    85 C    1.637    83 C    1.190   112 H    0.973
    85   6 C    3.959 --    84 C    1.637    86 C    1.183   113 H    0.972
    86   6 C    3.914 --    88 C    1.327    87 N    1.208    85 C    1.183
    87   7 N    3.406 --    83 C    1.238    86 C    1.208    61 Ni   0.660
    88   6 C    3.938 --    86 C    1.327    97 C    1.321    89 C    1.029
    89   6 C    3.986 --    90 C    1.384    96 C    1.382    88 C    1.029
    90   6 C    3.988 --    91 C    1.465    89 C    1.384   114 H    0.972
                            95 C    0.101
    91   6 C    3.993 --    90 C    1.465    92 C    1.379   115 H    0.971
                            96 C    0.100
    92   6 C    3.984 --    91 C    1.379    95 C    1.370    93 C    1.048
    93   6 C    3.864 --    94 O    1.809    92 C    1.048   116 H    0.942
    94   8 O    2.005 --    93 C    1.809
    95   6 C    3.988 --    96 C    1.470    92 C    1.370   117 H    0.968
                            90 C    0.101
    96   6 C    3.988 --    95 C    1.470    89 C    1.382   118 H    0.972
                            91 C    0.100
    97   6 C    3.919 --    88 C    1.321   101 N    1.223    98 C    1.176
    98   6 C    3.962 --    99 C    1.650    97 C    1.176   119 H    0.972
    99   6 C    3.959 --    98 C    1.650   100 C    1.174   120 H    0.975
   100   6 C    3.922 --    62 C    1.364   101 N    1.213    99 C    1.174
   101   7 N    3.402 --    97 C    1.223   100 C    1.213    61 Ni   0.663
   102   1 H    1.000 --    62 C    0.970
   103   1 H    0.997 --    64 C    0.975
   104   1 H    1.004 --    65 C    0.972
   105   1 H    1.003 --    70 C    0.972
   106   1 H    1.005 --    71 C    0.968
   107   1 H    1.010 --    73 C    0.942
   108   1 H    1.000 --    75 C    0.971
   109   1 H    1.003 --    76 C    0.972
   110   1 H    1.004 --    78 C    0.972
   111   1 H    1.001 --    79 C    0.973
   112   1 H    1.001 --    84 C    0.973
   113   1 H    1.003 --    85 C    0.972
   114   1 H    1.004 --    90 C    0.972
   115   1 H    1.000 --    91 C    0.971
   116   1 H    1.010 --    93 C    0.942
   117   1 H    1.005 --    95 C    0.968
   118   1 H    1.003 --    96 C    0.972
   119   1 H    1.004 --    98 C    0.972
   120   1 H    0.997 --    99 C    0.975
   121   6 C    3.928 --   122 C    2.374   125 C    1.332   124 C    0.191
   122   6 C    3.927 --   121 C    2.374   123 C    1.331   126 C    0.191
   123   6 C    3.938 --   124 C    2.456   122 C    1.331
   124   6 C    3.891 --   123 C    2.456    22 C    1.184   121 C    0.191
   125   6 C    3.935 --   126 C    2.454   121 C    1.332
   126   6 C    3.892 --   125 C    2.454   134 C    1.187   122 C    0.191
   127   6 C    3.926 --   128 C    2.375   131 C    1.329   130 C    0.191
   128   6 C    3.928 --   127 C    2.375   129 C    1.330   132 C    0.191
   129   6 C    3.935 --   130 C    2.456   128 C    1.330
   130   6 C    3.892 --   129 C    2.456   154 C    1.186   127 C    0.191
   131   6 C    3.938 --   132 C    2.458   127 C    1.329
   132   6 C    3.891 --   131 C    2.458    82 C    1.182   128 C    0.191
   133  28 Ni   3.005 --   173 N    0.660   152 N    0.660   139 N    0.660
                           159 N    0.660
   134   6 C    3.935 --   172 C    1.261   135 C    1.260   126 C    1.187
   135   6 C    3.902 --   134 C    1.260   139 N    1.238   136 C    1.193
   136   6 C    3.959 --   137 C    1.633   135 C    1.193   174 H    0.973
   137   6 C    3.959 --   136 C    1.633   138 C    1.186   175 H    0.973
   138   6 C    3.912 --   140 C    1.323   139 N    1.206   137 C    1.186
   139   7 N    3.399 --   135 C    1.238   138 C    1.206   133 Ni   0.660
   140   6 C    3.934 --   149 C    1.323   138 C    1.323   141 C    1.032
   141   6 C    3.986 --   148 C    1.383   142 C    1.381   140 C    1.032
   142   6 C    3.987 --   143 C    1.470   141 C    1.381   176 H    0.972
                           147 C    0.100
   143   6 C    3.988 --   142 C    1.470   144 C    1.371   177 H    0.968
                           148 C    0.101
   144   6 C    3.983 --   147 C    1.379   143 C    1.371   145 C    1.048
   145   6 C    3.864 --   146 O    1.810   144 C    1.048   178 H    0.942
   146   8 O    2.005 --   145 C    1.810
   147   6 C    3.993 --   148 C    1.465   144 C    1.379   179 H    0.971
                           142 C    0.100
   148   6 C    3.987 --   147 C    1.465   141 C    1.383   180 H    0.972
                           143 C    0.101
   149   6 C    3.912 --   140 C    1.323   152 N    1.206   150 C    1.185
   150   6 C    3.959 --   151 C    1.634   149 C    1.185   181 H    0.973
   151   6 C    3.959 --   150 C    1.634   153 C    1.192   182 H    0.973
   152   7 N    3.399 --   153 C    1.238   149 C    1.206   133 Ni   0.660
   153   6 C    3.903 --   154 C    1.261   152 N    1.238   151 C    1.192
   154   6 C    3.935 --   153 C    1.261   155 C    1.261   130 C    1.186
   155   6 C    3.903 --   154 C    1.261   159 N    1.238   156 C    1.193
   156   6 C    3.959 --   157 C    1.633   155 C    1.193   183 H    0.973
   157   6 C    3.959 --   156 C    1.633   158 C    1.186   184 H    0.973
   158   6 C    3.912 --   160 C    1.322   159 N    1.206   157 C    1.186
   159   7 N    3.399 --   155 C    1.238   158 C    1.206   133 Ni   0.660
   160   6 C    3.934 --   169 C    1.323   158 C    1.322   161 C    1.032
   161   6 C    3.986 --   162 C    1.383   168 C    1.380   160 C    1.032
   162   6 C    3.987 --   163 C    1.465   161 C    1.383   185 H    0.972
                           167 C    0.101
   163   6 C    3.993 --   162 C    1.465   164 C    1.379   186 H    0.971
                           168 C    0.100
   164   6 C    3.983 --   163 C    1.379   167 C    1.370   165 C    1.048
   165   6 C    3.864 --   166 O    1.809   164 C    1.048   187 H    0.942
   166   8 O    2.005 --   165 C    1.809
   167   6 C    3.988 --   168 C    1.471   164 C    1.370   188 H    0.968
                           162 C    0.101
   168   6 C    3.987 --   167 C    1.471   161 C    1.380   189 H    0.972
                           163 C    0.100
   169   6 C    3.912 --   160 C    1.323   173 N    1.206   170 C    1.185
   170   6 C    3.959 --   171 C    1.634   169 C    1.185   190 H    0.973
   171   6 C    3.959 --   170 C    1.634   172 C    1.192   191 H    0.973
   172   6 C    3.902 --   134 C    1.261   173 N    1.238   171 C    1.192
   173   7 N    3.399 --   172 C    1.238   169 C    1.206   133 Ni   0.660
   174   1 H    1.001 --   136 C    0.973
   175   1 H    1.003 --   137 C    0.973
   176   1 H    1.004 --   142 C    0.972
   177   1 H    1.005 --   143 C    0.968
   178   1 H    1.010 --   145 C    0.942
   179   1 H    1.000 --   147 C    0.971
   180   1 H    1.004 --   148 C    0.972
   181   1 H    1.003 --   150 C    0.973
   182   1 H    1.001 --   151 C    0.973
   183   1 H    1.001 --   156 C    0.973
   184   1 H    1.003 --   157 C    0.973
   185   1 H    1.004 --   162 C    0.972
   186   1 H    1.000 --   163 C    0.971
   187   1 H    1.010 --   165 C    0.942
   188   1 H    1.005 --   167 C    0.968
   189   1 H    1.004 --   168 C    0.972
   190   1 H    1.003 --   170 C    0.973
   191   1 H    1.001 --   171 C    0.973
 ---------------------------------------------------------------------------

           -------------------------------------------------
          | TOTAL ENERGY             -349.682552594606 Eh   |
          | GRADIENT NORM               0.000452365373 Eh/α |
          | HOMO-LUMO GAP               1.066117428576 eV   |
           -------------------------------------------------

 * finished run on 2022/07/30 at 04:28:00.241
