   * xtb version 6.5.1 (b24c23e) compiled by 'conda@728c89f4b128' on 2022-07-12
          program call               : xtb Zn_Ph3Me_C2_3.xyz --gfn 1 --opt -T 48

   ID    Z sym.   atoms
    1   30 Zn     1, 75, 153
    2    6 C      2-6, 8-20, 22-27, 29-42, 76-80, 82-94, 96-101, 103-116,
                  149-152, 154-158, 160-172, 174-179, 181-194
    3    7 N      7, 21, 28, 43, 81, 95, 102, 117, 159, 173, 180, 195
    4    1 H      44-74, 118-148, 196-225
########################################################################
[WARNING] Please study the warnings concerning your input carefully
-1- prog_main_parseArguments: Unknown option '-T' provided
########################################################################

          :  Hamiltonian                  GFN1-xTB          :
 * total energy  :  -339.3856007 Eh     change       -0.2039656E-08 Eh
 * total energy  :  -339.6004144 Eh     change       -0.2148137E+00 Eh
 * total energy  :  -339.7240655 Eh     change       -0.1236511E+00 Eh
 * total energy  :  -339.7702788 Eh     change       -0.4621328E-01 Eh
 * total energy  :  -339.7878885 Eh     change       -0.1760963E-01 Eh
 * total energy  :  -339.7996433 Eh     change       -0.1175483E-01 Eh
 * total energy  :  -339.8078179 Eh     change       -0.8174603E-02 Eh
 * total energy  :  -339.8149211 Eh     change       -0.7103233E-02 Eh
 * total energy  :  -339.8204482 Eh     change       -0.5527121E-02 Eh
 * total energy  :  -339.8244420 Eh     change       -0.3993809E-02 Eh
 * total energy  :  -339.8437910 Eh     change       -0.7195084E-05 Eh
 * total energy  :  -339.8437983 Eh     change       -0.7377787E-05 Eh
 * total energy  :  -339.8438057 Eh     change       -0.7308274E-05 Eh
 * total energy  :  -339.8438124 Eh     change       -0.6712234E-05 Eh
 * total energy  :  -339.8438184 Eh     change       -0.6023865E-05 Eh
 * total energy  :  -339.8438240 Eh     change       -0.5616026E-05 Eh
 * total energy  :  -339.8438295 Eh     change       -0.5476232E-05 Eh
 * total energy  :  -339.8438348 Eh     change       -0.5328751E-05 Eh
 * total energy  :  -339.8438398 Eh     change       -0.4957199E-05 Eh
   *** GEOMETRY OPTIMIZATION CONVERGED AFTER 114 ITERATIONS ***

 final structure:
================
225
 xtb: 6.5.1 (b24c23e)
Zn          35.52237735111088        0.03702589811033        0.00697602447691
C           32.10412465295978        0.03745191126162       -0.00642963068253
C           32.72399027810229        1.16434199425447        0.52167820048025
C           32.04365671578772        2.31544670871618        1.04864322702998
C           32.99769002404405        3.18454353121906        1.46745375892140
C           34.27306718000658        2.57299119953060        1.20350558708600
N           34.07192175466270        1.35222384035861        0.62795941555949
C           35.51588943038240        3.13800460901204        1.50100609417477
C           35.51180743310717        4.49337340416058        2.12664646276087
C           35.54752425017950        5.63211845158673        1.31651279965078
C           35.59622465502709        5.48569288871897       -0.18122442825844
C           35.53672310586614        6.89099166885342        1.90499489647217
C           35.49002316220643        7.03247517316799        3.28840726129471
C           35.49598803176001        8.40247327917800        3.91161944284024
C           35.45750477409055        5.89305878375857        4.08524616059722
C           35.46739345323299        4.62418604354762        3.51711645083933
C           35.43000723370896        3.39423594198394        4.38469960341517
C           36.76065783650855        2.55229349074798        1.25900936270484
C           38.02915105075636        3.14334521221438        1.58469526812413
C           38.99007012070605        2.27370824021386        1.17972369142596
N           36.97363371441844        1.33665142162574        0.66754315665891
C           38.31925250663080        1.14529179218990        0.60074208524676
C           38.96283167679209        0.03693129128517        0.01970546959269
C           38.32326068201588       -1.07149556575011       -0.56600398027014
C           38.99810128997017       -2.19951964250818       -1.14111593452117
C           38.04009392455136       -3.06866969070537       -1.55385006449248
C           36.76936458325892       -2.47781060806334       -1.23681558078357
N           36.97815522532039       -1.26275382899556       -0.64261948694053
C           35.52645719798559       -3.06327742299172       -1.48874563392059
C           35.52786270388988       -4.41811509928270       -2.11553817761061
C           35.49603793530315       -4.54746377120796       -3.50729600916383
C           35.46373394420078       -3.31634289699281       -4.37341806527800
C           35.49600567020803       -5.81488014548534       -4.07622815789495
C           35.52734009732929       -6.95623695734380       -3.27962171176440
C           35.51863477054724       -8.31949164233883       -3.91752415374402
C           35.55884104919581       -6.81635397217647       -1.89706598768707
C           35.55970610777770       -5.55706988617823       -1.30691243663836
C           35.59591733436395       -5.41278172406606        0.19139142094062
C           34.28150753506435       -2.49833690406315       -1.20037727690869
C           33.00808118189133       -3.10934352582680       -1.47468053787752
C           32.05107556490820       -2.24018379872424       -1.06281353656322
C           32.72765378117815       -1.08959580121464       -0.52988208497869
N           34.07629377577307       -1.27787119408571       -0.62563677438212
H           31.01850809502386        0.03767460583333       -0.01068053272802
H           30.97176396158149        2.43224044245053        1.08726548554695
H           32.86162033924338        4.15521032145188        1.91768548076821
H           34.72776915073652        4.92719753176242       -0.53581944561100
H           36.49078403862938        4.93486276868853       -0.47841596355986
H           35.60812112542326        6.46032034366993       -0.66832635741639
H           35.56267594594151        7.77484333001614        1.27585350268437
H           35.04558121441374        8.38098313779890        4.90416316386860
H           36.52300077686325        8.76165193743360        4.01108655466449
H           34.94856955516390        9.11260298922616        3.29095470163426
H           35.42147402103247        5.99373994923963        5.16515230685613
H           36.31340121820749        2.77821746820279        4.20571016270008
H           35.39846854320925        3.66215317288561        5.44039668335400
H           34.55039844901138        2.79177451351987        4.14969739533076
H           38.15873201085432        4.10184350999417        2.06178335736698
H           40.06047846427428        2.38084172812719        1.25850489331638
H           40.06896993929141       -2.30709769234600       -1.21232218104363
H           38.17316819654422       -4.02663345454952       -2.03102337713889
H           34.58261952894126       -2.71436501071331       -4.14294470658929
H           35.43868052414379       -3.58291633462453       -5.42963169005075
H           36.34594368923729       -2.70042952106152       -4.18827853003077
H           35.47167822305971       -5.91623497064525       -5.15643201816169
H           36.30837379698983       -8.39537070320426       -4.66678758601867
H           35.66731502851287       -9.10092449552520       -3.17238412608214
H           34.56361644266176       -8.49505035426220       -4.41710078883896
H           35.58360940616063       -7.69979322884969       -1.26734941476227
H           34.72564592457307       -4.85298559624155        0.53938331323402
H           36.48904839616360       -4.86418428021667        0.49695292885481
H           35.60176879449681       -6.38806685424280        0.67726962944089
H           32.87533707541057       -4.07969021792917       -1.92660765978134
H           30.97947868588721       -2.35655028439564       -1.10997650206592
Zn          57.37186958995517       -0.07713030682946       -0.05843550246693
C           60.78992877407909       -0.07976517431390       -0.08028841039592
C           60.16398163566195       -1.20680900559802       -0.60085266842681
C           60.83818888333968       -2.35847394473148       -1.13444167453885
C           59.87938759912459       -3.22805236732723       -1.54119532663195
C           58.60715496032262       -2.61614924212902       -1.26332327049024
N           58.81491843182704       -1.39460791256800       -0.69175292507310
C           57.36100401599077       -3.18173239625198       -1.54533102348584
C           57.35742690204038       -4.53870875322556       -2.16748266636363
C           57.38438707355483       -4.67319739784904       -3.55819023630017
C           57.41187581698710       -3.44548834577703       -4.42931007087666
C           57.38639520796171       -5.94340920095373       -4.12294195545663
C           57.36315863866549       -7.08093488265230       -3.32262542366331
C           57.34754430612652       -8.45139174682871       -3.94465293044397
C           57.33405882050693       -6.93582102591510       -1.93937097116472
C           57.33138052097637       -5.67521063223132       -1.35407688420874
C           57.30132602015696       -5.52497988975821        0.14377454679251
C           56.11916798382424       -2.59502853445260       -1.29100721633116
C           54.84701388027444       -3.18612368026303       -1.60195406145404
C           53.89090832619814       -2.31448408094287       -1.18998431979148
N           55.91311219780023       -1.37762287626426       -0.70073699426349
C           54.56840292195604       -1.18488105577837       -0.62117613179014
C           53.93158356005675       -0.07363772382944       -0.03815527056257
C           54.57773337981821        1.03601600170850        0.53776018179164
C           53.90938202941481        2.16706485945853        1.11447974897570
C           54.87209078300219        3.03656372097330        1.51537605581552
C           56.13922833794123        2.44287659832656        1.18933112896468
N           55.92369681889714        1.22583438702332        0.60167250719997
C           57.38503868303449        3.02756384522437        1.42836829314489
C           57.39092498480559        4.38448054568849        2.05063309306850
C           57.35142697925480        5.52137436294802        1.23731284690998
C           57.29773942594196        5.37071382200566       -0.25983094463589
C           57.36024161378347        6.78121337601678        1.82242190768467
C           57.40709568446899        6.92644442176368        3.20621612899493
C           57.42555880569652        8.30174292884893        3.81747981295309
C           57.44496267570182        5.78983752208115        4.00545356112245
C           57.43705857738763        4.51901863234685        3.44025879935633
C           57.47621306989976        3.29160041235455        4.31134804302132
C           58.62666452625545        2.46010345737219        1.13068686343771
C           59.90331017978021        3.07009712620388        1.39197056251041
C           60.85542876850146        2.19906594448873        0.97279071400299
C           60.17258804013944        1.04829358342151        0.44830901592090
N           58.82512774363306        1.23815356335990        0.55668395079215
H           61.87553158215141       -0.08061760503716       -0.08741307802996
H           61.90956225560107       -2.47525481778584       -1.18547538979556
H           60.01020669231421       -4.19917680102700       -1.99199718971436
H           58.29631315446243       -2.84462741194393       -4.20872241998175
H           56.53270656204884       -2.82685168537589       -4.23895068767521
H           57.42734134441801       -3.71610943170892       -5.48467815235368
H           57.40874951115097       -6.04725198418312       -5.20292421798693
H           57.83768128383404       -9.17783537754623       -3.29587189575998
H           56.31644548630347       -8.77731048938101       -4.10067412405301
H           57.85118401800630       -8.44531176675683       -4.91161763546099
H           57.31556658162060       -7.81780889098768       -1.30736688273936
H           56.40879771028913       -4.97625959260995        0.45083613445661
H           57.29871661186099       -6.49834296091422        0.63353011297002
H           58.17235441657522       -4.96275067241181        0.48589378830667
H           54.71184573622300       -4.14590835991362       -2.07488271776095
H           52.81969934039793       -2.42108858459609       -1.25769631564034
H           52.83930051376441        2.27612298800532        1.19477767353597
H           54.74448150384791        3.99652582023852        1.99002028750887
H           58.16034395348935        4.80372620700236       -0.61507893282080
H           57.29259989794005        6.34391780662631       -0.74988677738065
H           56.39762386746597        4.82667770936973       -0.55282555459370
H           57.32970049779676        7.66395705981391        1.19190044676813
H           56.61254623185317        8.90904098179709        3.41630349554298
H           57.32184351642302        8.24978118609950        4.90121065278684
H           58.36672347238856        8.80402035659550        3.58397043822594
H           57.48066864568722        5.89247703200642        5.08517178403858
H           58.35824775037708        2.69123620409566        4.08006447352564
H           56.59517004390415        2.67231001786993        4.13205249336443
H           57.50451363917360        3.56253760887021        5.36636708516521
H           60.04141427507572        4.04115366077592        1.84075712457608
H           61.92755473511878        2.31425959774863        1.00972941151230
C           40.37530968265955        0.03603923536689        0.02262181081066
C           41.59102210590056        0.02881402752415        0.01986160525077
C           51.30348629191955       -0.06440015825869       -0.02344633894523
C           52.51915484406499       -0.07047881690995       -0.03096853038992
Zn          46.44729515595864       -0.01935458111307       -0.00060616499844
C           43.00315447629198        0.01801318094595        0.01435503840833
C           43.65432251795952        0.34023863566042        1.21955611849886
C           42.99082374052201        0.65846131357026        2.45078788133372
C           43.95757366065656        0.86806486257379        3.38114566490254
C           45.22159014008174        0.68445960102046        2.72424609051150
N           45.00122141811111        0.36724518306276        1.41132687031518
C           46.47068517150618        0.81139617434725        3.33603253460954
C           46.48111748506928        1.12283969154696        4.79602231475662
C           46.50025145153128        2.44923340046806        5.23412590143640
C           46.51039519022761        3.57013954310619        4.22904590237103
C           46.50913687457010        2.71933734304997        6.59816260547565
C           46.49836532774677        1.68764176662972        7.53039793471250
C           46.52569428214213        1.98492351143117        9.00558639529050
C           46.48047406180769        0.36992981251091        7.08314552558213
C           46.47136134217786        0.07770052718121        5.72485570006695
C           46.45037387870723       -1.35015648409179        5.24754597812344
C           47.71127702113871        0.65961394726463        2.71268057054530
C           48.98462604182823        0.81919494621290        3.35767638956773
C           49.93845049636293        0.58970208052589        2.41872798932855
N           47.91327068642092        0.33634364241766        1.39830191443598
C           49.25753465753834        0.28264948066264        1.19418053305328
C           49.89138848511876       -0.05461571140885       -0.01619542673150
C           49.24014947152548       -0.38067081069556       -1.22036333493048
C           49.90367287999844       -0.70254403607144       -2.45065387512058
C           48.93697157502628       -0.91329696846241       -3.38078097657303
C           47.67300694664971       -0.72672925119766       -2.72466026018633
N           47.89330327948937       -0.40722021208394       -1.41229659660144
C           46.42404354158884       -0.85121693346312       -3.33714152094644
C           46.41402706304274       -1.16312157309355       -4.79703395047611
C           46.42484526046208       -0.11821129846744       -5.72613251837701
C           46.44814123905668        1.30972571119432       -5.24916540199997
C           46.41292022250026       -0.41070949532688       -7.08433331991176
C           46.38959161543267       -1.72845751711098       -7.53125590350516
C           46.39405413391601       -2.02645585746737       -9.00654648186161
C           46.38045354123062       -2.75994485711174       -6.59878776489022
C           46.39195469175517       -2.48956600596548       -5.23481343989707
C           46.37952691542703       -3.61025546153029       -4.22951526909505
C           45.18345097135828       -0.69576283985151       -2.71471229894455
C           43.91015051581194       -0.85069941984362       -3.36089559126109
C           42.95630320959071       -0.62000624369406       -2.42228174697441
C           43.63715557397626       -0.31692791371810       -1.19668379419522
N           44.98140090932376       -0.37357370364141       -1.40004625626128
H           41.92112123881908        0.70867154284313        2.57968073871758
H           43.83421316054194        1.12540960540971        4.42114948771243
H           47.39051077450461        3.49480874177385        3.58744855918199
H           46.52186281162648        4.53976532973360        4.72597198249476
H           45.62662959030252        3.51387570890036        3.59055554604736
H           46.52310884484969        3.74999279710207        6.93749221500268
H           47.54327782276519        1.87774174974278        9.38842251949692
H           45.88568902111224        1.29050836473062        9.55121604198791
H           46.19152085737084        3.00316293325684        9.20496006601552
H           46.47199665030278       -0.44109753263483        7.80415572038536
H           45.56180064931620       -1.53340923630165        4.64025719471219
H           47.32564353732506       -1.55513946911526        4.62802082130059
H           46.44762646935922       -2.04263109965541        6.08884158198921
H           49.12266082628810        1.07519829454440        4.39616282426286
H           51.01004634279238        0.61897284238314        2.53788487859755
H           50.97334262236583       -0.75416904126091       -2.57920185926672
H           49.06030638863155       -1.17319580975295       -4.42015538493409
H           45.57334275979279        1.51638999126950       -4.62953271218321
H           46.45196405613246        2.00199609383754       -6.09062475287711
H           47.33714243087385        1.49155910442581       -4.64207597260894
H           46.42015155011981        0.40016943709813       -7.80552467735160
H           46.03147485326405       -3.03566597282220       -9.20215404429146
H           47.41007204848497       -1.94573819302581       -9.39988010039196
H           45.76670858368640       -1.31566921628249       -9.54577201105771
H           46.36221967949015       -3.79062440845472       -6.93784547247692
H           46.36603939059072       -4.57994241018293       -4.72627756623224
H           45.49967277137771       -3.53303753036852       -3.58778399184122
H           47.26351663594296       -3.55568220773574       -3.59118891716363
H           43.77214000239780       -1.10460164275487       -4.39989593056433
H           41.88473926971511       -0.64588042163158       -2.54243947418914

          :  Hamiltonian                  GFN1-xTB          :
         :: total energy            -339.843839769019 Eh    ::
         :: gradient norm              0.000195221551 Eh/a0 ::
         :: HOMO-LUMO gap              1.025854763513 eV    ::
         :: SCC energy              -345.236534340259 Eh    ::
         :: repulsion energy           5.601080158324 Eh    ::

    * Orbital Energies and Occupations

         #    Occupation            Energy/Eh            Energy/eV
      -------------------------------------------------------------
         1        2.0000           -0.7561452             -20.5758
       ...           ...                  ...                  ...
       303        2.0000           -0.4168235             -11.3423
       304        2.0000           -0.4167964             -11.3416
       305        2.0000           -0.4164601             -11.3325
       306        2.0000           -0.4163517             -11.3295
       307        2.0000           -0.4161634             -11.3244
       308        2.0000           -0.4161303             -11.3235
       309        2.0000           -0.4143076             -11.2739
       310        2.0000           -0.3897132             -10.6046
       311        2.0000           -0.3892889             -10.5931
       312        2.0000           -0.3892663             -10.5925
       313        2.0000           -0.3849711             -10.4756
       314        2.0000           -0.3785139             -10.2999
       315        2.0000           -0.3706708             -10.0865 (HOMO)
       316                         -0.3329713              -9.0606 (LUMO)
       317                         -0.3240941              -8.8190
       318                         -0.3203420              -8.7170
       319                         -0.3200939              -8.7102
       320                         -0.3200716              -8.7096
       321                         -0.3166381              -8.6162
       322                         -0.2903938              -7.9020
       323                         -0.2842832              -7.7357
       324                         -0.2812808              -7.6540
       325                         -0.2525188              -6.8714
       326                         -0.2525173              -6.8713
       ...                                ...                  ...
       716                          1.3484932              36.6944
      -------------------------------------------------------------
                  HL-Gap            0.0376995 Eh            1.0259 eV

Wiberg/Mayer (AO) data.
largest (>0.10) Wiberg bond orders for each atom

     #   Z sym  total        # sym  WBO       # sym  WBO       # sym  WBO
 ---------------------------------------------------------------------------
     1  30 Zn   2.003 --     7 N    0.461    43 N    0.461    28 N    0.457
                            21 N    0.457
     2   6 C    3.929 --     3 C    1.357    42 C    1.357    44 H    0.972
     3   6 C    3.923 --     2 C    1.357     7 N    1.235     4 C    1.170
     4   6 C    3.960 --     5 C    1.660     3 C    1.170    45 H    0.976
     5   6 C    3.964 --     4 C    1.660     6 C    1.171    46 H    0.975
     6   6 C    3.919 --     8 C    1.322     7 N    1.239     5 C    1.171
     7   7 N    3.295 --     6 C    1.239     3 C    1.235     1 Zn   0.461
     8   6 C    3.935 --    18 C    1.327     6 C    1.322     9 C    1.003
     9   6 C    3.987 --    16 C    1.383    10 C    1.380     8 C    1.003
                            13 C    0.104
    10   6 C    3.984 --    12 C    1.422     9 C    1.380    11 C    1.020
                            15 C    0.103
    11   6 C    3.995 --    10 C    1.020    49 H    0.986    47 H    0.974
                            48 H    0.974
    12   6 C    3.993 --    10 C    1.422    13 C    1.412    50 H    0.971
                            16 C    0.103
    13   6 C    3.988 --    15 C    1.416    12 C    1.412    14 C    1.020
                             9 C    0.104
    14   6 C    3.996 --    13 C    1.020    51 H    0.984    53 H    0.982
                            52 H    0.972
    15   6 C    3.993 --    16 C    1.419    13 C    1.416    54 H    0.970
                            10 C    0.103
    16   6 C    3.984 --    15 C    1.419     9 C    1.383    17 C    1.020
                            12 C    0.103
    17   6 C    3.995 --    16 C    1.020    56 H    0.986    55 H    0.974
                            57 H    0.974
    18   6 C    3.915 --     8 C    1.327    21 N    1.225    19 C    1.177
    19   6 C    3.962 --    20 C    1.648    18 C    1.177    58 H    0.975
    20   6 C    3.963 --    19 C    1.648    22 C    1.184    59 H    0.974
    21   7 N    3.298 --    22 C    1.258    18 C    1.225     1 Zn   0.457
    22   6 C    3.912 --    23 C    1.266    21 N    1.258    20 C    1.184
    23   6 C    3.939 --    22 C    1.266    24 C    1.266   149 C    1.162
    24   6 C    3.912 --    23 C    1.266    28 N    1.259    25 C    1.184
    25   6 C    3.963 --    26 C    1.648    24 C    1.184    60 H    0.974
    26   6 C    3.962 --    25 C    1.648    27 C    1.177    61 H    0.975
    27   6 C    3.915 --    29 C    1.327    28 N    1.225    26 C    1.177
    28   7 N    3.298 --    24 C    1.259    27 C    1.225     1 Zn   0.457
    29   6 C    3.935 --    27 C    1.327    39 C    1.322    30 C    1.003
    30   6 C    3.987 --    37 C    1.385    31 C    1.378    29 C    1.003
                            34 C    0.104
    31   6 C    3.984 --    33 C    1.425    30 C    1.378    32 C    1.020
                            36 C    0.102
    32   6 C    3.995 --    31 C    1.020    63 H    0.986    62 H    0.974
                            64 H    0.974
    33   6 C    3.993 --    31 C    1.425    34 C    1.409    65 H    0.971
                            37 C    0.104
    34   6 C    3.988 --    36 C    1.419    33 C    1.409    35 C    1.020
                            30 C    0.104
    35   6 C    3.996 --    34 C    1.020    67 H    0.986    66 H    0.978
                            68 H    0.974
    36   6 C    3.993 --    34 C    1.419    37 C    1.416    69 H    0.970
                            31 C    0.102
    37   6 C    3.984 --    36 C    1.416    30 C    1.385    38 C    1.020
                            33 C    0.104
    38   6 C    3.995 --    37 C    1.020    72 H    0.986    70 H    0.974
                            71 H    0.974
    39   6 C    3.919 --    29 C    1.322    43 N    1.239    40 C    1.171
    40   6 C    3.964 --    41 C    1.660    39 C    1.171    73 H    0.975
    41   6 C    3.960 --    40 C    1.660    42 C    1.170    74 H    0.976
    42   6 C    3.923 --     2 C    1.357    43 N    1.235    41 C    1.170
    43   7 N    3.295 --    39 C    1.239    42 C    1.235     1 Zn   0.461
    44   1 H    1.002 --     2 C    0.972
    45   1 H    0.998 --     4 C    0.976
    46   1 H    1.002 --     5 C    0.975
    47   1 H    1.008 --    11 C    0.974
    48   1 H    1.008 --    11 C    0.974
    49   1 H    1.004 --    11 C    0.986
    50   1 H    1.000 --    12 C    0.971
    51   1 H    1.004 --    14 C    0.984
    52   1 H    1.006 --    14 C    0.972
    53   1 H    1.005 --    14 C    0.982
    54   1 H    1.000 --    15 C    0.970
    55   1 H    1.008 --    17 C    0.974
    56   1 H    1.004 --    17 C    0.986
    57   1 H    1.008 --    17 C    0.974
    58   1 H    1.002 --    19 C    0.975
    59   1 H    1.003 --    20 C    0.974
    60   1 H    1.003 --    25 C    0.974
    61   1 H    1.002 --    26 C    0.975
    62   1 H    1.008 --    32 C    0.974
    63   1 H    1.004 --    32 C    0.986
    64   1 H    1.008 --    32 C    0.974
    65   1 H    0.999 --    33 C    0.971
    66   1 H    1.005 --    35 C    0.978
    67   1 H    1.004 --    35 C    0.986
    68   1 H    1.006 --    35 C    0.974
    69   1 H    1.000 --    36 C    0.970
    70   1 H    1.008 --    38 C    0.974
    71   1 H    1.008 --    38 C    0.974
    72   1 H    1.004 --    38 C    0.986
    73   1 H    1.002 --    40 C    0.975
    74   1 H    0.998 --    41 C    0.976
    75  30 Zn   2.003 --    81 N    0.461   117 N    0.461   102 N    0.457
                            95 N    0.457
    76   6 C    3.929 --    77 C    1.357   116 C    1.357   118 H    0.972
    77   6 C    3.923 --    76 C    1.357    81 N    1.235    78 C    1.170
    78   6 C    3.960 --    79 C    1.660    77 C    1.170   119 H    0.976
    79   6 C    3.964 --    78 C    1.660    80 C    1.171   120 H    0.975
    80   6 C    3.919 --    82 C    1.322    81 N    1.239    79 C    1.171
    81   7 N    3.295 --    80 C    1.239    77 C    1.235    75 Zn   0.461
    82   6 C    3.935 --    92 C    1.327    80 C    1.322    83 C    1.003
    83   6 C    3.987 --    84 C    1.382    90 C    1.381    82 C    1.003
                            87 C    0.104
    84   6 C    3.984 --    86 C    1.420    83 C    1.382    85 C    1.020
                            89 C    0.103
    85   6 C    3.995 --    84 C    1.020   123 H    0.986   122 H    0.974
                           121 H    0.974
    86   6 C    3.993 --    84 C    1.420    87 C    1.414   124 H    0.970
                            90 C    0.103
    87   6 C    3.988 --    86 C    1.414    89 C    1.414    88 C    1.020
                            83 C    0.104
    88   6 C    3.996 --    87 C    1.020   127 H    0.983   125 H    0.983
                           126 H    0.972
    89   6 C    3.993 --    90 C    1.421    87 C    1.414   128 H    0.970
                            84 C    0.103
    90   6 C    3.984 --    89 C    1.421    83 C    1.381    91 C    1.020
                            86 C    0.103
    91   6 C    3.995 --    90 C    1.020   130 H    0.986   131 H    0.974
                           129 H    0.974
    92   6 C    3.915 --    82 C    1.327    95 N    1.225    93 C    1.177
    93   6 C    3.962 --    94 C    1.648    92 C    1.177   132 H    0.975
    94   6 C    3.963 --    93 C    1.648    96 C    1.184   133 H    0.974
    95   7 N    3.298 --    96 C    1.258    92 C    1.225    75 Zn   0.457
    96   6 C    3.912 --    97 C    1.266    95 N    1.258    94 C    1.184
    97   6 C    3.939 --    96 C    1.266    98 C    1.266   152 C    1.162
    98   6 C    3.912 --    97 C    1.266   102 N    1.258    99 C    1.184
    99   6 C    3.963 --   100 C    1.648    98 C    1.184   134 H    0.974
   100   6 C    3.962 --    99 C    1.648   101 C    1.177   135 H    0.975
   101   6 C    3.915 --   103 C    1.327   102 N    1.225   100 C    1.177
   102   7 N    3.298 --    98 C    1.258   101 C    1.225    75 Zn   0.457
   103   6 C    3.935 --   101 C    1.327   113 C    1.322   104 C    1.003
   104   6 C    3.987 --   111 C    1.386   105 C    1.378   103 C    1.003
                           108 C    0.104
   105   6 C    3.984 --   107 C    1.425   104 C    1.378   106 C    1.020
                           110 C    0.102
   106   6 C    3.995 --   105 C    1.020   137 H    0.986   136 H    0.974
                           138 H    0.974
   107   6 C    3.993 --   105 C    1.425   108 C    1.409   139 H    0.971
                           111 C    0.103
   108   6 C    3.988 --   110 C    1.419   107 C    1.409   109 C    1.020
                           104 C    0.104
   109   6 C    3.996 --   108 C    1.020   141 H    0.986   140 H    0.978
                           142 H    0.974
   110   6 C    3.993 --   108 C    1.419   111 C    1.416   143 H    0.970
                           105 C    0.102
   111   6 C    3.984 --   110 C    1.416   104 C    1.386   112 C    1.020
                           107 C    0.103
   112   6 C    3.995 --   111 C    1.020   146 H    0.986   145 H    0.974
                           144 H    0.974
   113   6 C    3.919 --   103 C    1.322   117 N    1.239   114 C    1.171
   114   6 C    3.964 --   115 C    1.660   113 C    1.171   147 H    0.975
   115   6 C    3.960 --   114 C    1.660   116 C    1.170   148 H    0.976
   116   6 C    3.923 --    76 C    1.357   117 N    1.235   115 C    1.170
   117   7 N    3.295 --   113 C    1.239   116 C    1.235    75 Zn   0.461
   118   1 H    1.002 --    76 C    0.972
   119   1 H    0.998 --    78 C    0.976
   120   1 H    1.002 --    79 C    0.975
   121   1 H    1.008 --    85 C    0.974
   122   1 H    1.008 --    85 C    0.974
   123   1 H    1.004 --    85 C    0.986
   124   1 H    1.000 --    86 C    0.970
   125   1 H    1.005 --    88 C    0.983
   126   1 H    1.006 --    88 C    0.972
   127   1 H    1.005 --    88 C    0.983
   128   1 H    1.000 --    89 C    0.970
   129   1 H    1.008 --    91 C    0.974
   130   1 H    1.004 --    91 C    0.986
   131   1 H    1.008 --    91 C    0.974
   132   1 H    1.002 --    93 C    0.975
   133   1 H    1.003 --    94 C    0.974
   134   1 H    1.003 --    99 C    0.974
   135   1 H    1.002 --   100 C    0.975
   136   1 H    1.008 --   106 C    0.974
   137   1 H    1.004 --   106 C    0.986
   138   1 H    1.008 --   106 C    0.974
   139   1 H    0.999 --   107 C    0.971
   140   1 H    1.005 --   109 C    0.978
   141   1 H    1.004 --   109 C    0.986
   142   1 H    1.006 --   109 C    0.974
   143   1 H    1.000 --   110 C    0.970
   144   1 H    1.008 --   112 C    0.974
   145   1 H    1.008 --   112 C    0.974
   146   1 H    1.004 --   112 C    0.986
   147   1 H    1.002 --   114 C    0.975
   148   1 H    0.998 --   115 C    0.976
   149   6 C    3.928 --   150 C    2.586    23 C    1.162
   150   6 C    3.930 --   149 C    2.586   154 C    1.163
   151   6 C    3.930 --   152 C    2.586   175 C    1.163
   152   6 C    3.928 --   151 C    2.586    97 C    1.162
   153  30 Zn   2.000 --   173 N    0.458   195 N    0.458   159 N    0.458
                           180 N    0.458
   154   6 C    3.929 --   155 C    1.265   194 C    1.264   150 C    1.163
   155   6 C    3.912 --   154 C    1.265   159 N    1.259   156 C    1.186
   156   6 C    3.961 --   157 C    1.646   155 C    1.186   196 H    0.974
   157   6 C    3.962 --   156 C    1.646   158 C    1.179   197 H    0.975
   158   6 C    3.913 --   160 C    1.325   159 N    1.224   157 C    1.179
   159   7 N    3.293 --   155 C    1.259   158 C    1.224   153 Zn   0.458
   160   6 C    3.930 --   158 C    1.325   170 C    1.325   161 C    1.003
   161   6 C    3.987 --   162 C    1.384   168 C    1.379   160 C    1.003
                           165 C    0.104
   162   6 C    3.984 --   164 C    1.418   161 C    1.384   163 C    1.020
                           167 C    0.103
   163   6 C    3.995 --   162 C    1.020   199 H    0.986   200 H    0.974
                           198 H    0.974
   164   6 C    3.993 --   162 C    1.418   165 C    1.417   201 H    0.970
                           168 C    0.102
   165   6 C    3.988 --   164 C    1.417   167 C    1.411   166 C    1.020
                           161 C    0.104
   166   6 C    3.996 --   165 C    1.020   204 H    0.985   203 H    0.981
                           202 H    0.972
   167   6 C    3.993 --   168 C    1.423   165 C    1.411   205 H    0.971
                           162 C    0.103
   168   6 C    3.984 --   167 C    1.423   161 C    1.379   169 C    1.020
                           164 C    0.102
   169   6 C    3.995 --   168 C    1.020   208 H    0.986   207 H    0.974
                           206 H    0.974
   170   6 C    3.913 --   160 C    1.325   173 N    1.224   171 C    1.179
   171   6 C    3.962 --   172 C    1.646   170 C    1.179   209 H    0.975
   172   6 C    3.961 --   171 C    1.646   174 C    1.186   210 H    0.974
   173   7 N    3.293 --   174 C    1.259   170 C    1.224   153 Zn   0.458
   174   6 C    3.912 --   175 C    1.265   173 N    1.259   172 C    1.186
   175   6 C    3.929 --   176 C    1.265   174 C    1.265   151 C    1.163
   176   6 C    3.912 --   175 C    1.265   180 N    1.259   177 C    1.186
   177   6 C    3.961 --   178 C    1.646   176 C    1.186   211 H    0.974
   178   6 C    3.962 --   177 C    1.646   179 C    1.179   212 H    0.975
   179   6 C    3.913 --   181 C    1.325   180 N    1.224   178 C    1.179
   180   7 N    3.293 --   176 C    1.259   179 C    1.224   153 Zn   0.458
   181   6 C    3.930 --   179 C    1.325   191 C    1.325   182 C    1.003
   182   6 C    3.987 --   189 C    1.384   183 C    1.379   181 C    1.003
                           186 C    0.104
   183   6 C    3.984 --   185 C    1.423   182 C    1.379   184 C    1.020
                           188 C    0.102
   184   6 C    3.995 --   183 C    1.020   214 H    0.986   213 H    0.974
                           215 H    0.974
   185   6 C    3.993 --   183 C    1.423   186 C    1.411   216 H    0.971
                           189 C    0.103
   186   6 C    3.988 --   188 C    1.417   185 C    1.411   187 C    1.020
                           182 C    0.104
   187   6 C    3.996 --   186 C    1.020   217 H    0.985   219 H    0.981
                           218 H    0.972
   188   6 C    3.993 --   189 C    1.418   186 C    1.417   220 H    0.970
                           183 C    0.102
   189   6 C    3.984 --   188 C    1.418   182 C    1.384   190 C    1.020
                           185 C    0.103
   190   6 C    3.995 --   189 C    1.020   221 H    0.986   223 H    0.974
                           222 H    0.974
   191   6 C    3.913 --   181 C    1.325   195 N    1.224   192 C    1.179
   192   6 C    3.962 --   193 C    1.646   191 C    1.179   224 H    0.975
   193   6 C    3.961 --   192 C    1.646   194 C    1.186   225 H    0.974
   194   6 C    3.912 --   154 C    1.264   195 N    1.259   193 C    1.186
   195   7 N    3.293 --   194 C    1.259   191 C    1.224   153 Zn   0.458
   196   1 H    1.003 --   156 C    0.974
   197   1 H    1.002 --   157 C    0.975
   198   1 H    1.008 --   163 C    0.974
   199   1 H    1.004 --   163 C    0.986
   200   1 H    1.008 --   163 C    0.974
   201   1 H    1.000 --   164 C    0.970
   202   1 H    1.006 --   166 C    0.972
   203   1 H    1.005 --   166 C    0.981
   204   1 H    1.004 --   166 C    0.985
   205   1 H    1.000 --   167 C    0.971
   206   1 H    1.008 --   169 C    0.974
   207   1 H    1.008 --   169 C    0.974
   208   1 H    1.004 --   169 C    0.986
   209   1 H    1.002 --   171 C    0.975
   210   1 H    1.003 --   172 C    0.974
   211   1 H    1.003 --   177 C    0.974
   212   1 H    1.002 --   178 C    0.975
   213   1 H    1.008 --   184 C    0.974
   214   1 H    1.004 --   184 C    0.986
   215   1 H    1.008 --   184 C    0.974
   216   1 H    1.000 --   185 C    0.971
   217   1 H    1.004 --   187 C    0.985
   218   1 H    1.006 --   187 C    0.972
   219   1 H    1.005 --   187 C    0.981
   220   1 H    1.000 --   188 C    0.970
   221   1 H    1.004 --   190 C    0.986
   222   1 H    1.008 --   190 C    0.974
   223   1 H    1.008 --   190 C    0.974
   224   1 H    1.002 --   192 C    0.975
   225   1 H    1.003 --   193 C    0.974
 ---------------------------------------------------------------------------

           -------------------------------------------------
          | TOTAL ENERGY             -339.843839769019 Eh   |
          | GRADIENT NORM               0.000195221551 Eh/α |
          | HOMO-LUMO GAP               1.025854763513 eV   |
           -------------------------------------------------

 * finished run on 2022/07/30 at 10:05:18.171
