   * xtb version 6.5.1 (b24c23e) compiled by 'conda@728c89f4b128' on 2022-07-12
          program call               : xtb Ni_H_C4_4.xyz --gfn 1 --opt -T 48

   ID    Z sym.   atoms
    1   28 Ni     1, 37, 85, 120
    2    6 C      2-6, 8-11, 13-18, 20-24, 38-42, 44-47, 49-54, 56-60, 73-84,
                  86-90, 92-95, 97-102, 104-108, 121-125, 127-130, 132-137,
                  139-143
    3    7 N      7, 12, 19, 25, 43, 48, 55, 61, 91, 96, 103, 109, 126, 131,
                  138, 144
    4    1 H      26-36, 62-72, 110-119, 145-154

          :  Hamiltonian                  GFN1-xTB          :
 * total energy  :  -280.5104949 Eh     change        0.5798881E-08 Eh
 * total energy  :  -283.3422308 Eh     change       -0.2831736E+01 Eh
 * total energy  :  -283.7615816 Eh     change       -0.4193507E+00 Eh
 * total energy  :  -283.9927983 Eh     change       -0.2312168E+00 Eh
 * total energy  :  -284.1192959 Eh     change       -0.1264976E+00 Eh
 * total energy  :  -284.2167411 Eh     change       -0.9744521E-01 Eh
 * total energy  :  -284.3020222 Eh     change       -0.8528106E-01 Eh
 * total energy  :  -284.3531023 Eh     change       -0.5108017E-01 Eh
 * total energy  :  -284.3856341 Eh     change       -0.3253171E-01 Eh
 * total energy  :  -284.4118491 Eh     change       -0.2621502E-01 Eh
 * total energy  :  -284.4860464 Eh     change       -0.5370962E-04 Eh
 * total energy  :  -284.4860685 Eh     change       -0.2214738E-04 Eh
 * total energy  :  -284.4860897 Eh     change       -0.2121465E-04 Eh
 * total energy  :  -284.4861017 Eh     change       -0.1200416E-04 Eh
 * total energy  :  -284.4861124 Eh     change       -0.1067943E-04 Eh
 * total energy  :  -284.4861228 Eh     change       -0.1044587E-04 Eh
 * total energy  :  -284.4861314 Eh     change       -0.8552497E-05 Eh
 * total energy  :  -284.4861365 Eh     change       -0.5140782E-05 Eh
 * total energy  :  -284.4861397 Eh     change       -0.3138988E-05 Eh
   *** GEOMETRY OPTIMIZATION CONVERGED AFTER 38 ITERATIONS ***

 final structure:
================
154
 xtb: 6.5.1 (b24c23e)
Ni          24.24180468686511       -0.02468196110037       -0.02269658902054
C           20.83084036653995       -0.04986077075087       -0.05561107155782
C           21.49522450588913       -0.90412704675612       -0.91131624050747
C           20.83146185984219       -1.80036299203020       -1.81158168869346
C           21.80030191136314       -2.46989332473753       -2.47840361765010
C           23.05321322612468       -1.98052661236786       -1.98426149867374
N           22.85718380943592       -1.02111941464249       -1.02403896231419
C           24.27892059840032       -2.42895255395818       -2.43097657613173
C           25.48927590218240       -1.96306543043868       -1.96258013847496
C           26.75388538912209       -2.43693558938841       -2.43550727150040
C           27.70358491834006       -1.75514739541824       -1.75161301049324
N           25.66085220499451       -0.99860590610637       -0.99661944869190
C           27.01502861433444       -0.86847617795346       -0.86494159081222
C           27.67215989611545        0.00461777865656        0.00646684010523
C           26.98615020406692        0.86595514855460        0.86704069594330
C           27.64442186975602        1.76450982408950        1.76471441092316
C           26.67174161428907        2.42967091457297        2.43253608069551
C           25.42351784277814        1.93371598397148        1.93911080476481
N           25.62790345705018        0.97270501640835        0.97617896038783
C           24.19737535412013        2.37714462626565        2.38791831661960
C           22.98736210291460        1.90841550296115        1.91973878119132
C           21.71802148662182        2.37735070820395        2.39129111347204
C           20.77220702268032        1.69620030249140        1.70352094763221
C           21.46634978169187        0.81230085783278        0.81405072669946
N           22.82399826246053        0.94871588679117        0.95359532008690
H           19.74715679587584       -0.05704660680307       -0.06650005161985
H           19.76051595179620       -1.88875507567130       -1.90387256581176
H           21.69949679691278       -3.22865890600943       -3.23826398916036
H           24.29228791354315       -3.19461426882986       -3.19806290262981
H           26.87781634157398       -3.19379129466915       -3.19361559123046
H           28.77640601507849       -1.83181119335984       -1.82696700984414
H           28.71438225827999        1.85962930376845        1.85796582253056
H           26.77001560183909        3.18892001368160        3.19201606431917
H           24.18428068855667        3.14204998158595        3.15576752072046
H           21.59128183827486        3.13182459759172        3.15153912686328
H           19.69848888362375        1.76873086030982        1.77510809503227
Ni          64.65919016491480        0.00320203994829       -0.01161402847514
C           68.06997541482671        0.05259628859661       -0.02265473184577
C           67.40242163106029        1.25845877833237       -0.08253837830976
C           68.06281503319487        2.52887591551014       -0.14844993964008
C           67.09159451190683        3.47076927303415       -0.18095860824779
C           65.84050686111104        2.77338822919516       -0.13597017853985
N           66.04008363932547        1.41773205251375       -0.07830405856912
C           64.61325179351715        3.40313307678461       -0.14570619396681
C           63.40475240021165        2.74009038013997       -0.10633266535438
C           62.13838953141438        3.40642419906598       -0.11923308150033
C           61.19111236689113        2.43926545163163       -0.08204153768750
N           63.23680263041279        1.37574205603906       -0.05873978414325
C           61.88264010600249        1.18724865818399       -0.04658383115645
C           61.22941473654828       -0.04738023179612       -0.01972126218035
C           61.91812750450661       -1.26216567527479        0.01451445378230
C           61.26328243158670       -2.53365929411910        0.05244963692661
C           62.23826714460770       -3.47230128618174        0.10353366670163
C           63.48465170100319       -2.76927157438574        0.09455259374267
N           63.27700712353762       -1.41076797786384        0.03672727385852
C           64.71220922411318       -3.39577629083932        0.14270576876739
C           65.92043008253920       -2.73038095800585        0.12560642024150
C           67.19149837278418       -3.39097255835484        0.16715325792612
C           68.13485563561552       -2.42193611712302        0.11696109936895
C           67.43758429099086       -1.17163055762206        0.04694377810556
N           66.08043367275886       -1.36999722621695        0.05539754790465
H           69.15361626095938        0.06791215926531       -0.02795249988678
H           69.13337913723956        2.65881160642336       -0.16505504926324
H           67.18969483655559        4.54371478544647       -0.23036596335687
H           64.59681066576891        4.48607040892198       -0.18818434958892
H           62.01195655514175        4.47681368279988       -0.15426565220716
H           60.11805033400583        2.54425451867971       -0.07980856107916
H           60.19376024252597       -2.67001377475555        0.04325665048241
H           62.14283126844585       -4.54568708416059        0.14444074765474
H           64.72790456614344       -4.47835631746836        0.19374059006660
H           67.32089880637120       -4.46014983766464        0.22537312141515
H           69.20882844263245       -2.52084752732832        0.12526165816949
C           30.29912852933408        0.01946205067985        0.01823433112459
C           29.07780767656592        0.01517041492083        0.01612208389092
C           31.64953736866136        0.01999012485612        0.01924207170447
C           32.87095851088037        0.01738177581577        0.01474004100794
C           43.77410668633552       -0.01622623017978       -0.02339044255178
C           42.55265257219159       -0.01625220328645       -0.02108462300144
C           45.12419527184684       -0.02099707980371       -0.02643149271925
C           46.34565952037084       -0.02779525542470       -0.03175418050190
C           57.24960208499847       -0.07551262117204       -0.02694619912786
C           56.02859568054888       -0.07184180972074       -0.02723607203041
C           58.60127143592088       -0.07231507838467       -0.02627580687862
C           59.82213125129906       -0.06532444317381       -0.02388751838252
Ni          37.71218634938865       -0.00150973276842       -0.00087386508592
C           34.27620197194054        0.01180006098313        0.01090343647853
C           34.95511395848501        0.92198480940875        0.82605921074717
C           34.28848996097845        1.86516582409136        1.66962970533215
C           35.25514335882307        2.57329703394814        2.30151775717406
C           36.50702937125688        2.05821337715899        1.83974334379824
N           36.31212537420670        1.04262133347404        0.93268646015619
C           37.72935779162863        2.53541701965741        2.26312770718384
C           38.94494435694003        2.05181260578894        1.82805407815700
C           40.20379298339531        2.56055627548658        2.27773986660529
C           41.16077182048848        1.84640502696554        1.63794234381902
N           39.12605847614440        1.03434565944873        0.92005799421693
C           40.48131635527292        0.90586151487532        0.80170969843449
C           41.14772998906847       -0.01133442686788       -0.01607749073452
C           40.46878530117872       -0.92537105484586       -0.82705450164553
C           41.13552006732167       -1.87092106849380       -1.66789380055534
C           40.16891917428654       -2.58115290277584       -2.29752542503826
C           38.91697918688718       -2.06466177662334       -1.83748178171547
N           39.11186272007449       -1.04664625304143       -0.93296357949339
C           37.69474526979413       -2.54087822669383       -2.26193908763876
C           36.47907246533067       -2.05388294958774       -1.83052613256764
C           35.22019739593424       -2.55947276798354       -2.28366094819776
C           34.26327330367332       -1.84284641087132       -1.64656046354864
C           34.94270781665130       -0.90429571715888       -0.80801622895768
N           36.29806099858911       -1.03581085724547       -0.92333634726010
H           33.21769585719463        1.95848454274494        1.75410359893741
H           35.15026864385837        3.37370439623190        3.01651791832491
H           37.73504694821283        3.34409857317577        2.98494175501530
H           40.31967018844485        3.36100108908898        2.99099454374020
H           42.23276739175886        1.93409637496546        1.71274210481032
H           42.20632142156103       -1.96436812495408       -1.75234961911920
H           40.27409658277735       -3.38337925621216       -3.01044029328358
H           37.68915329529175       -3.35066543745713       -2.98251625892342
H           35.10437044172195       -3.35951498179553       -2.99738354097248
H           33.19126525135755       -1.92791322904293       -1.72411119316003
Ni          51.18614351663674       -0.04940359631926       -0.03042399940597
C           47.75064265446720       -0.03358711511658       -0.03225149354543
C           48.42714003716404        0.87603210759856        0.78569734624595
C           47.75805179030950        1.81844756591487        1.62827261452893
C           48.72283448055673        2.53133396043996        2.25757903700391
C           49.97613021373333        2.02005577998538        1.79516909751828
N           49.78376383186556        1.00023421283858        0.89213685432144
C           51.19704992019565        2.50834135638326        2.20935559631763
C           52.41386896606932        2.02838635314883        1.77305682525434
C           53.67150216454151        2.54969255465936        2.21196504467841
C           54.63023048522161        1.82943102450410        1.58197635229585
N           52.59727968924230        0.99886837269300        0.87973116850290
C           53.95329637353487        0.87202857226819        0.76264586161379
C           54.62170387917797       -0.06630782204232       -0.02792870690900
C           53.94579679117164       -0.99790776335809       -0.81992290199808
C           54.61446644760722       -1.96081448116514       -1.63951673604244
C           53.64960843070798       -2.67014156047838       -2.27258293831433
C           52.39649511055181       -2.13688086710388       -1.83492936611430
N           52.58869775921551       -1.11086384467516       -0.93956430657051
C           51.17568124194226       -2.60410592602811       -2.27393363782198
C           49.95890901166080       -2.10493239929257       -1.86050346269034
C           48.70137277808466       -2.60403697479944       -2.32472303437765
C           47.74259489639449       -1.88341304196245       -1.69506461147831
C           48.41955145731064       -0.94837699090056       -0.85054235372285
N           49.77509255916544       -1.08461688433640       -0.95623898501651
H           46.68703110980157        1.90864220415243        1.71338358943675
H           48.61576608895856        3.33304321575284        2.97079442901269
H           51.20071154402776        3.32320469024080        2.92418144435961
H           53.78518223866415        3.36131715826867        2.91283510927896
H           55.70198825037569        1.92174413750769        1.65436253380444
H           55.68537699121701       -2.06393386379536       -1.71002531653449
H           53.75635177385070       -3.48148976194504       -2.97488093992191
H           51.17256669372848       -3.41785739863508       -2.99003453280465
H           48.58751785140251       -3.40367609888056       -3.03920875150218
H           46.67084444806036       -1.96365492181948       -1.78109571025894

          :  Hamiltonian                  GFN1-xTB          :
         :: total energy            -284.486139681487 Eh    ::
         :: gradient norm              0.000496828474 Eh/a0 ::
         :: HOMO-LUMO gap              1.015898559521 eV    ::
         :: SCC energy              -289.054780401856 Eh    ::
         :: repulsion energy           4.704879181206 Eh    ::

    * Orbital Energies and Occupations

         #    Occupation            Energy/Eh            Energy/eV
      -------------------------------------------------------------
         1        2.0000           -0.7832165             -21.3124
       ...           ...                  ...                  ...
       253        2.0000           -0.3990314             -10.8582
       254        2.0000           -0.3990298             -10.8582
       255        2.0000           -0.3987300             -10.8500
       256        2.0000           -0.3987268             -10.8499
       257        2.0000           -0.3983423             -10.8394
       258        2.0000           -0.3982113             -10.8359
       259        2.0000           -0.3974227             -10.8144
       260        2.0000           -0.3973007             -10.8111
       261        2.0000           -0.3972930             -10.8109
       262        2.0000           -0.3971747             -10.8077
       263        2.0000           -0.3960880             -10.7781
       264        2.0000           -0.3901418             -10.6163
       265        2.0000           -0.3839305             -10.4473 (HOMO)
       266                         -0.3465969              -9.4314 (LUMO)
       267                         -0.3391384              -9.2284
       268                         -0.3324296              -9.0459
       269                         -0.3323864              -9.0447
       270                         -0.3323219              -9.0429
       271                         -0.3316093              -9.0235
       272                         -0.3315914              -9.0231
       273                         -0.3305486              -8.9947
       274                         -0.3304407              -8.9918
       275                         -0.3302797              -8.9874
       276                         -0.3300894              -8.9822
       ...                                ...                  ...
       552                          1.5170465              41.2809
      -------------------------------------------------------------
                  HL-Gap            0.0373336 Eh            1.0159 eV

Wiberg/Mayer (AO) data.
largest (>0.10) Wiberg bond orders for each atom

     #   Z sym  total        # sym  WBO       # sym  WBO       # sym  WBO
 ---------------------------------------------------------------------------
     1  28 Ni   3.011 --    25 N    0.665     7 N    0.664    12 N    0.661
                            19 N    0.661
     2   6 C    3.939 --     3 C    1.365    24 C    1.365    26 H    0.970
     3   6 C    3.923 --     2 C    1.365     7 N    1.218     4 C    1.170
     4   6 C    3.960 --     5 C    1.655     3 C    1.170    27 H    0.975
     5   6 C    3.962 --     4 C    1.655     6 C    1.171    28 H    0.975
     6   6 C    3.921 --     8 C    1.363     7 N    1.217     5 C    1.171
     7   7 N    3.406 --     3 C    1.218     6 C    1.217     1 Ni   0.664
     8   6 C    3.944 --     9 C    1.370     6 C    1.363    29 H    0.970
     9   6 C    3.916 --     8 C    1.370    12 N    1.202    10 C    1.178
    10   6 C    3.958 --    11 C    1.643     9 C    1.178    30 H    0.975
    11   6 C    3.961 --    10 C    1.643    13 C    1.186    31 H    0.973
    12   7 N    3.410 --    13 C    1.244     9 C    1.202     1 Ni   0.661
    13   6 C    3.905 --    14 C    1.265    12 N    1.244    11 C    1.186
    14   6 C    3.948 --    15 C    1.265    13 C    1.265    74 C    1.181
    15   6 C    3.905 --    14 C    1.265    19 N    1.244    16 C    1.186
    16   6 C    3.961 --    17 C    1.643    15 C    1.186    32 H    0.973
    17   6 C    3.958 --    16 C    1.643    18 C    1.178    33 H    0.975
    18   6 C    3.916 --    20 C    1.369    19 N    1.202    17 C    1.178
    19   7 N    3.410 --    15 C    1.244    18 C    1.202     1 Ni   0.661
    20   6 C    3.944 --    18 C    1.369    21 C    1.363    34 H    0.970
    21   6 C    3.921 --    20 C    1.363    25 N    1.217    22 C    1.171
    22   6 C    3.962 --    23 C    1.655    21 C    1.171    35 H    0.975
    23   6 C    3.960 --    22 C    1.655    24 C    1.170    36 H    0.975
    24   6 C    3.923 --     2 C    1.365    25 N    1.218    23 C    1.170
    25   7 N    3.406 --    24 C    1.218    21 C    1.217     1 Ni   0.665
    26   1 H    1.000 --     2 C    0.970
    27   1 H    0.998 --     4 C    0.975
    28   1 H    0.997 --     5 C    0.975
    29   1 H    1.000 --     8 C    0.970
    30   1 H    0.997 --    10 C    0.975
    31   1 H    1.002 --    11 C    0.973
    32   1 H    1.002 --    16 C    0.973
    33   1 H    0.997 --    17 C    0.975
    34   1 H    1.000 --    20 C    0.970
    35   1 H    0.998 --    22 C    0.975
    36   1 H    0.998 --    23 C    0.975
    37  28 Ni   3.013 --    61 N    0.665    43 N    0.665    48 N    0.662
                            55 N    0.661
    38   6 C    3.940 --    39 C    1.365    60 C    1.365    62 H    0.970
    39   6 C    3.923 --    38 C    1.365    43 N    1.218    40 C    1.170
    40   6 C    3.960 --    41 C    1.656    39 C    1.170    63 H    0.975
    41   6 C    3.962 --    40 C    1.656    42 C    1.171    64 H    0.975
    42   6 C    3.921 --    44 C    1.363    43 N    1.217    41 C    1.171
    43   7 N    3.406 --    39 C    1.218    42 C    1.217    37 Ni   0.665
    44   6 C    3.945 --    45 C    1.369    42 C    1.363    65 H    0.970
    45   6 C    3.916 --    44 C    1.369    48 N    1.203    46 C    1.177
    46   6 C    3.959 --    47 C    1.644    45 C    1.177    66 H    0.975
    47   6 C    3.961 --    46 C    1.644    49 C    1.185    67 H    0.973
    48   7 N    3.410 --    49 C    1.242    45 C    1.203    37 Ni   0.662
    49   6 C    3.906 --    50 C    1.268    48 N    1.242    47 C    1.185
    50   6 C    3.949 --    51 C    1.269    49 C    1.268    84 C    1.174
    51   6 C    3.906 --    50 C    1.269    55 N    1.242    52 C    1.185
    52   6 C    3.961 --    53 C    1.643    51 C    1.185    68 H    0.973
    53   6 C    3.959 --    52 C    1.643    54 C    1.177    69 H    0.975
    54   6 C    3.916 --    56 C    1.369    55 N    1.203    53 C    1.177
    55   7 N    3.410 --    51 C    1.242    54 C    1.203    37 Ni   0.661
    56   6 C    3.945 --    54 C    1.369    57 C    1.363    70 H    0.970
    57   6 C    3.921 --    56 C    1.363    61 N    1.217    58 C    1.171
    58   6 C    3.962 --    59 C    1.656    57 C    1.171    71 H    0.975
    59   6 C    3.960 --    58 C    1.656    60 C    1.170    72 H    0.975
    60   6 C    3.923 --    38 C    1.365    61 N    1.218    59 C    1.170
    61   7 N    3.406 --    60 C    1.218    57 C    1.217    37 Ni   0.665
    62   1 H    1.000 --    38 C    0.970
    63   1 H    0.998 --    40 C    0.975
    64   1 H    0.998 --    41 C    0.975
    65   1 H    1.000 --    44 C    0.970
    66   1 H    0.997 --    46 C    0.975
    67   1 H    1.002 --    47 C    0.973
    68   1 H    1.002 --    52 C    0.973
    69   1 H    0.997 --    53 C    0.975
    70   1 H    1.000 --    56 C    0.970
    71   1 H    0.998 --    58 C    0.975
    72   1 H    0.998 --    59 C    0.975
    73   6 C    3.939 --    74 C    2.485    75 C    1.303
    74   6 C    3.927 --    73 C    2.485    14 C    1.181    76 C    0.200
    75   6 C    3.937 --    76 C    2.484    73 C    1.303
    76   6 C    3.928 --    75 C    2.484    86 C    1.183    74 C    0.200
    77   6 C    3.937 --    78 C    2.482    79 C    1.305
    78   6 C    3.927 --    77 C    2.482    98 C    1.184    80 C    0.200
    79   6 C    3.937 --    80 C    2.482    77 C    1.305
    80   6 C    3.927 --    79 C    2.482   121 C    1.183    78 C    0.200
    81   6 C    3.936 --    82 C    2.490    83 C    1.297
    82   6 C    3.925 --    81 C    2.490   133 C    1.176    84 C    0.199
    83   6 C    3.939 --    84 C    2.491    81 C    1.297
    84   6 C    3.924 --    83 C    2.491    50 C    1.174    82 C    0.199
    85  28 Ni   2.996 --   109 N    0.660   103 N    0.660    96 N    0.660
                            91 N    0.660
    86   6 C    3.938 --    87 C    1.263   108 C    1.263    76 C    1.183
    87   6 C    3.905 --    86 C    1.263    91 N    1.245    88 C    1.187
    88   6 C    3.959 --    89 C    1.640    87 C    1.187   110 H    0.973
    89   6 C    3.959 --    88 C    1.640    90 C    1.180   111 H    0.975
    90   6 C    3.914 --    92 C    1.366    91 N    1.202    89 C    1.180
    91   7 N    3.404 --    87 C    1.245    90 C    1.202    85 Ni   0.660
    92   6 C    3.939 --    93 C    1.367    90 C    1.366   112 H    0.970
    93   6 C    3.914 --    92 C    1.367    96 N    1.201    94 C    1.180
    94   6 C    3.959 --    95 C    1.640    93 C    1.180   113 H    0.975
    95   6 C    3.959 --    94 C    1.640    97 C    1.187   114 H    0.973
    96   7 N    3.403 --    97 C    1.245    93 C    1.201    85 Ni   0.660
    97   6 C    3.905 --    98 C    1.263    96 N    1.245    95 C    1.187
    98   6 C    3.938 --    99 C    1.263    97 C    1.263    78 C    1.184
    99   6 C    3.905 --    98 C    1.263   103 N    1.245   100 C    1.187
   100   6 C    3.959 --   101 C    1.640    99 C    1.187   115 H    0.973
   101   6 C    3.959 --   100 C    1.640   102 C    1.180   116 H    0.975
   102   6 C    3.914 --   104 C    1.367   103 N    1.201   101 C    1.180
   103   7 N    3.403 --    99 C    1.245   102 C    1.201    85 Ni   0.660
   104   6 C    3.939 --   102 C    1.367   105 C    1.366   117 H    0.970
   105   6 C    3.914 --   104 C    1.366   109 N    1.202   106 C    1.180
   106   6 C    3.959 --   107 C    1.640   105 C    1.180   118 H    0.975
   107   6 C    3.959 --   106 C    1.640   108 C    1.187   119 H    0.973
   108   6 C    3.905 --    86 C    1.263   109 N    1.245   107 C    1.187
   109   7 N    3.404 --   108 C    1.245   105 C    1.202    85 Ni   0.660
   110   1 H    1.002 --    88 C    0.973
   111   1 H    0.997 --    89 C    0.975
   112   1 H    1.000 --    92 C    0.970
   113   1 H    0.997 --    94 C    0.975
   114   1 H    1.002 --    95 C    0.973
   115   1 H    1.002 --   100 C    0.973
   116   1 H    0.997 --   101 C    0.975
   117   1 H    1.000 --   104 C    0.970
   118   1 H    0.997 --   106 C    0.975
   119   1 H    1.002 --   107 C    0.973
   120  28 Ni   2.998 --   131 N    0.661   126 N    0.660   138 N    0.660
                           144 N    0.660
   121   6 C    3.939 --   143 C    1.263   122 C    1.263    80 C    1.183
   122   6 C    3.905 --   121 C    1.263   126 N    1.245   123 C    1.187
   123   6 C    3.960 --   124 C    1.641   122 C    1.187   145 H    0.973
   124   6 C    3.959 --   123 C    1.641   125 C    1.179   146 H    0.975
   125   6 C    3.914 --   127 C    1.367   126 N    1.201   124 C    1.179
   126   7 N    3.404 --   122 C    1.245   125 C    1.201   120 Ni   0.660
   127   6 C    3.939 --   125 C    1.367   128 C    1.366   147 H    0.970
   128   6 C    3.914 --   127 C    1.366   131 N    1.203   129 C    1.179
   129   6 C    3.959 --   130 C    1.641   128 C    1.179   148 H    0.975
   130   6 C    3.960 --   129 C    1.641   132 C    1.187   149 H    0.973
   131   7 N    3.404 --   132 C    1.243   128 C    1.203   120 Ni   0.661
   132   6 C    3.906 --   133 C    1.266   131 N    1.243   130 C    1.187
   133   6 C    3.938 --   134 C    1.266   132 C    1.266    82 C    1.176
   134   6 C    3.906 --   133 C    1.266   138 N    1.243   135 C    1.187
   135   6 C    3.960 --   136 C    1.641   134 C    1.187   150 H    0.973
   136   6 C    3.959 --   135 C    1.641   137 C    1.179   151 H    0.975
   137   6 C    3.914 --   139 C    1.366   138 N    1.203   136 C    1.179
   138   7 N    3.404 --   134 C    1.243   137 C    1.203   120 Ni   0.660
   139   6 C    3.939 --   140 C    1.367   137 C    1.366   152 H    0.970
   140   6 C    3.914 --   139 C    1.367   144 N    1.201   141 C    1.179
   141   6 C    3.959 --   142 C    1.641   140 C    1.179   153 H    0.975
   142   6 C    3.960 --   141 C    1.641   143 C    1.187   154 H    0.973
   143   6 C    3.905 --   121 C    1.263   144 N    1.245   142 C    1.187
   144   7 N    3.404 --   143 C    1.245   140 C    1.201   120 Ni   0.660
   145   1 H    1.002 --   123 C    0.973
   146   1 H    0.997 --   124 C    0.975
   147   1 H    1.000 --   127 C    0.970
   148   1 H    0.997 --   129 C    0.975
   149   1 H    1.002 --   130 C    0.973
   150   1 H    1.002 --   135 C    0.973
   151   1 H    0.997 --   136 C    0.975
   152   1 H    1.000 --   139 C    0.970
   153   1 H    0.997 --   141 C    0.975
   154   1 H    1.002 --   142 C    0.973
 ---------------------------------------------------------------------------

           -------------------------------------------------
          | TOTAL ENERGY             -284.486139681487 Eh   |
          | GRADIENT NORM               0.000496828474 Eh/α |
          | HOMO-LUMO GAP               1.015898559521 eV   |
           -------------------------------------------------

 * finished run on 2022/07/30 at 02:10:23.278
