   * xtb version 6.5.1 (b24c23e) compiled by 'conda@728c89f4b128' on 2022-07-12
          program call               : xtb Ni_Py_C4_2.xyz --gfn 1 --opt -T 48

   ID    Z sym.   atoms
    1   28 Ni     1, 55
    2    6 C      2-6, 8-11, 13-17, 19-24, 26-29, 31-36, 56-60, 62-65, 67-71,
                  73-78, 80-83, 85-90, 109-112
    3    7 N      7, 12, 18, 25, 30, 37, 61, 66, 72, 79, 84, 91
    4    1 H      38-54, 92-108
########################################################################
[WARNING] Please study the warnings concerning your input carefully
-1- prog_main_parseArguments: Unknown option '-T' provided
########################################################################

          :  Hamiltonian                  GFN1-xTB          :
 * total energy  :  -199.8038089 Eh     change       -0.6049561E-08 Eh
 * total energy  :  -199.9350950 Eh     change       -0.1312861E+00 Eh
 * total energy  :  -199.9801466 Eh     change       -0.4505157E-01 Eh
 * total energy  :  -200.0048986 Eh     change       -0.2475203E-01 Eh
 * total energy  :  -200.0182619 Eh     change       -0.1336324E-01 Eh
 * total energy  :  -200.0295245 Eh     change       -0.1126268E-01 Eh
 * total energy  :  -200.0364098 Eh     change       -0.6885288E-02 Eh
 * total energy  :  -200.0405683 Eh     change       -0.4158461E-02 Eh
 * total energy  :  -200.0444000 Eh     change       -0.3831669E-02 Eh
 * total energy  :  -200.0471921 Eh     change       -0.2792172E-02 Eh
 * total energy  :  -200.0544667 Eh     change       -0.6022255E-05 Eh
 * total energy  :  -200.0544744 Eh     change       -0.7701903E-05 Eh
 * total energy  :  -200.0544851 Eh     change       -0.1069416E-04 Eh
 * total energy  :  -200.0544966 Eh     change       -0.1142004E-04 Eh
 * total energy  :  -200.0545063 Eh     change       -0.9762575E-05 Eh
 * total energy  :  -200.0545154 Eh     change       -0.9029148E-05 Eh
 * total energy  :  -200.0545252 Eh     change       -0.9800829E-05 Eh
 * total energy  :  -200.0545352 Eh     change       -0.1007759E-04 Eh
 * total energy  :  -200.0545365 Eh     change       -0.1272188E-05 Eh
   *** GEOMETRY OPTIMIZATION CONVERGED AFTER 44 ITERATIONS ***

 final structure:
================
112
 xtb: 6.5.1 (b24c23e)
Ni          12.37469857294710       -0.05247829989354       -0.01122566893055
C            8.97959046296636       -0.07201448288559       -0.05772796304265
C            9.63317847419643       -1.28616117043024       -0.03660263990414
C            8.95405979145214       -2.54582323173592       -0.01960789056592
C            9.90743063476643       -3.49886236911175        0.09803925369563
C           11.16977155475458       -2.82023989538344        0.14230126883855
N           10.99178192881707       -1.46277542577335        0.04555698215156
C           12.38456104373962       -3.46175366917157        0.34256331811561
C           12.38879436486272       -4.93546012990019        0.50735964405254
C           12.75070937765548       -5.52560188940704        1.71712011576783
C           12.73533719913287       -6.90744172400160        1.82485106618386
N           12.39408605468236       -7.70829327325739        0.82059162558965
C           12.05071513981774       -7.15292378395156       -0.33697936536205
C           12.03002986369765       -5.78190922566332       -0.54027451318816
C           13.59548410648543       -2.78550309243981        0.39290062837007
C           14.85947690127562       -3.43638995082742        0.56095035103358
C           15.81017159251741       -2.47757641015779        0.45589911657628
N           13.77144351037492       -1.43406422173836        0.19689213749326
C           15.12609783219565       -1.24598820397430        0.22021912176775
C           15.79008031130905       -0.03841097834045       -0.00997903190647
C           15.11483987628850        1.16495354632273       -0.22982343808321
C           15.78654683670585        2.39899540400435       -0.48665703096786
C           14.82857090598583        3.35270745485859       -0.57125954672494
C           13.57367413077858        2.69794267827610       -0.35729690804066
N           13.75977926321889        1.34553320169684       -0.17971105290120
C           12.35554565063875        3.36280927040854       -0.31686888277185
C           12.34791760681658        4.83821315881443       -0.44984362495998
C           11.70315851304217        5.46433834859459       -1.51592674822523
C           11.72398852592542        6.84755774858550       -1.59972547495165
N           12.33061157701613        7.61834440733773       -0.70282840938830
C           12.94623790478834        7.02942801840650        0.31729440173631
C           12.98442325518624        5.65405206821557        0.48456786541997
C           11.14305575057953        2.70259595861985       -0.16644975869719
C            9.87521797055361        3.36803767259184       -0.09105139890209
C            8.92910025569773        2.40235774136584       -0.02952869411955
C            9.61993656470985        1.14935131580870       -0.05200234880869
N           10.97782405693883        1.34147876688638       -0.10688950801873
H            7.89590383194807       -0.07802581188456       -0.06903004583572
H            7.88371984458735       -2.66352333621929       -0.07780672813317
H            9.78025514690542       -4.56719978979679        0.16270505145673
H           13.02698525333451       -4.91079021642494        2.56538512241089
H           13.00849641571167       -7.39112802304156        2.75812368315411
H           11.77975937377200       -7.83366286203327       -1.13870363274506
H           11.75226806644532       -5.37311015139461       -1.50444015206490
H           14.99197619814185       -4.49362718165237        0.72243416936621
H           16.88139861043130       -2.58024520545392        0.51987438407267
H           16.85453315866355        2.50554799815261       -0.58724560975780
H           14.94996326265503        4.40537933103651       -0.76738175670926
H           11.20560528972294        4.87515815125953       -2.27701284404790
H           11.23191102831608        7.35780048889602       -2.42256473608285
H           13.43120373771390        7.68592106905417        1.03379694425760
H           13.48934973329191        5.21823886661635        1.33840138109126
H            9.74036469030437        4.43734407185530       -0.08265493066164
H            7.85759896491690        2.50834172105372        0.02964248359640
Ni          25.81113581199386        0.04778517601630       -0.02534085178362
C           29.20631142715558        0.05277948750710       -0.07509515324405
C           28.55273278024499        1.22079783669809       -0.40725525494786
C           29.23204880348929        2.43102459228631       -0.75671159367270
C           28.27874383834829        3.37699033760418       -0.92214500071288
C           27.01626782823265        2.74051169277274       -0.68332891550349
N           27.19410111221388        1.41358041663703       -0.38088577361547
C           25.80147932790691        3.41253347179259       -0.67927643697013
C           25.79744508453631        4.87050252547120       -0.94998658636414
C           25.43440637942263        5.78662915505107        0.03576507298126
C           25.45019531215841        7.14018574534284       -0.26248843151146
N           25.79289190092179        7.61479735852927       -1.45565577982132
C           26.13728160882805        6.74711140450336       -2.40161375851585
C           26.15763714663888        5.37615178072016       -2.19791009489398
C           24.59041353321165        2.78019177747946       -0.43504609471897
C           23.32641668920483        3.45174525844567       -0.46482305759702
C           22.37567945999758        2.50394689488139       -0.28605152017168
N           24.41441942164807        1.43033302554608       -0.22851914863805
C           23.05975676791530        1.25723251883273       -0.15171676574338
C           22.39569548261968        0.03513222127933       -0.01912846699381
C           23.07079907190139       -1.18009227565219        0.12162196164040
C           22.39884666964610       -2.43522640252009        0.23613104672541
C           23.35676163832159       -3.37251132947113        0.43181760756481
C           24.61190968042437       -2.68422004735917        0.44429041548486
N           24.42593125625756       -1.33860150410083        0.22081687811630
C           25.83012532448470       -3.30927029166754        0.67408544101764
C           25.83742203412954       -4.75960805440890        0.97574067198615
C           26.48077736714065       -5.66908324044719        0.13715650933769
C           26.45963090997661       -7.01686230768053        0.45935464038205
N           25.85392113944489       -7.49316438335784        1.54230102411136
C           25.23958213591660       -6.63268479941700        2.34767926743479
C           25.20190024734396       -5.26810188736853        2.10774851202024
C           27.04288341519720       -2.63441376183031        0.62448043433206
C           28.31081399343391       -3.24982340162379        0.88819184272817
C           29.25692646573058       -2.30773686996799        0.66728347207473
C           28.56601647545646       -1.11472312169506        0.28370433609386
N           27.20812080619061       -1.31440307178712        0.28726678970814
H           30.29000262395600        0.05544992959551       -0.08719235447463
H           30.30244678042188        2.52673144471301       -0.84589721004512
H           28.40603545751325        4.41790931002188       -1.17109489361600
H           25.15697167971776        5.44474043270664        1.02572411210394
H           25.17622031095221        7.87410273298099        0.48975535431253
H           26.40938234997160        7.16562911565551       -3.36617996100286
H           26.43625078437772        4.70492817866654       -3.00147416989379
H           23.19394457623346        4.51009215291086       -0.61890398134187
H           21.30442855519133        2.62075819049238       -0.25533920043044
H           21.33076025607421       -2.56616494386789        0.17215659326786
H           23.23514466979954       -4.43663477211516        0.55078483009440
H           26.97747783687918       -5.32704402011001       -0.76297695752455
H           26.95072503034785       -7.74461488362944       -0.17998225619656
H           24.75524417044906       -7.05214015886342        3.22461813357506
H           24.69809433354774       -4.60252958586536        2.79847785726210
H           28.44578877695019       -4.27104389441774        1.20530683636371
H           30.32847116452051       -2.39224390642024        0.75392142117734
C           18.41752206930598       -0.01076217019064       -0.02007584526434
C           17.19629641040411       -0.03049593804084       -0.01654732913971
C           19.76829148125821        0.00421067321270       -0.02500896766684
C           20.98947836512034        0.02583973283595       -0.02427203164394

          :  Hamiltonian                  GFN1-xTB          :
         :: total energy            -200.054536507519 Eh    ::
         :: gradient norm              0.000460448884 Eh/a0 ::
         :: HOMO-LUMO gap              1.220800222368 eV    ::
         :: SCC energy              -203.161986599486 Eh    ::
         :: repulsion energy           3.209474881926 Eh    ::

    * Orbital Energies and Occupations

         #    Occupation            Energy/Eh            Energy/eV
      -------------------------------------------------------------
         1        2.0000           -0.7868007             -21.4099
       ...           ...                  ...                  ...
       173        2.0000           -0.4215053             -11.4697
       174        2.0000           -0.4044773             -11.0064
       175        2.0000           -0.4044757             -11.0063
       176        2.0000           -0.4040166             -10.9939
       177        2.0000           -0.4040125             -10.9937
       178        2.0000           -0.4032997             -10.9743
       179        2.0000           -0.4032959             -10.9742
       180        2.0000           -0.4028511             -10.9621
       181        2.0000           -0.4022411             -10.9455
       182        2.0000           -0.4022332             -10.9453
       183        2.0000           -0.4021798             -10.9439
       184        2.0000           -0.4021751             -10.9437
       185        2.0000           -0.3905065             -10.6262 (HOMO)
       186                         -0.3456430              -9.4054 (LUMO)
       187                         -0.3363523              -9.1526
       188                         -0.3363448              -9.1524
       189                         -0.3347431              -9.1088
       190                         -0.3347178              -9.1081
       191                         -0.3318841              -9.0310
       192                         -0.3056596              -8.3174
       193                         -0.2988557              -8.1323
       194                         -0.2835625              -7.7161
       195                         -0.2835223              -7.7150
       196                         -0.2823925              -7.6843
       ...                                ...                  ...
       390                          1.5123275              41.1525
      -------------------------------------------------------------
                  HL-Gap            0.0448636 Eh            1.2208 eV

Wiberg/Mayer (AO) data.
largest (>0.10) Wiberg bond orders for each atom

     #   Z sym  total        # sym  WBO       # sym  WBO       # sym  WBO
 ---------------------------------------------------------------------------
     1  28 Ni   3.010 --     7 N    0.664    37 N    0.664    18 N    0.661
                            25 N    0.661
     2   6 C    3.935 --     3 C    1.364    36 C    1.364    38 H    0.970
     3   6 C    3.923 --     2 C    1.364     7 N    1.214     4 C    1.174
     4   6 C    3.960 --     5 C    1.651     3 C    1.174    39 H    0.975
     5   6 C    3.963 --     4 C    1.651     6 C    1.176    40 H    0.972
     6   6 C    3.920 --     8 C    1.324     7 N    1.221     5 C    1.176
     7   7 N    3.402 --     6 C    1.221     3 C    1.214     1 Ni   0.664
     8   6 C    3.939 --    15 C    1.330     6 C    1.324     9 C    1.022
     9   6 C    3.986 --    14 C    1.395    10 C    1.395     8 C    1.022
                            12 N    0.107
    10   6 C    3.988 --    11 C    1.441     9 C    1.395    41 H    0.973
                            13 C    0.109
    11   6 C    3.972 --    10 C    1.441    12 N    1.416    42 H    0.972
                            14 C    0.109
    12   7 N    3.031 --    13 C    1.416    11 C    1.416     9 C    0.107
    13   6 C    3.972 --    14 C    1.441    12 N    1.416    43 H    0.972
                            10 C    0.109
    14   6 C    3.988 --    13 C    1.441     9 C    1.395    44 H    0.973
                            11 C    0.109
    15   6 C    3.915 --     8 C    1.330    18 N    1.206    16 C    1.183
    16   6 C    3.959 --    17 C    1.637    15 C    1.183    45 H    0.973
    17   6 C    3.961 --    16 C    1.637    19 C    1.190    46 H    0.973
    18   7 N    3.407 --    19 C    1.239    15 C    1.206     1 Ni   0.661
    19   6 C    3.904 --    20 C    1.265    18 N    1.239    17 C    1.190
    20   6 C    3.944 --    19 C    1.265    21 C    1.265   110 C    1.180
    21   6 C    3.904 --    20 C    1.265    25 N    1.238    22 C    1.191
    22   6 C    3.961 --    23 C    1.636    21 C    1.191    47 H    0.973
    23   6 C    3.959 --    22 C    1.636    24 C    1.183    48 H    0.973
    24   6 C    3.915 --    26 C    1.327    25 N    1.207    23 C    1.183
    25   7 N    3.406 --    21 C    1.238    24 C    1.207     1 Ni   0.661
    26   6 C    3.939 --    24 C    1.327    33 C    1.322    27 C    1.027
    27   6 C    3.986 --    32 C    1.393    28 C    1.393    26 C    1.027
                            30 N    0.107
    28   6 C    3.987 --    29 C    1.442    27 C    1.393    49 H    0.973
                            31 C    0.109
    29   6 C    3.972 --    28 C    1.442    30 N    1.416    50 H    0.972
                            32 C    0.109
    30   7 N    3.030 --    31 C    1.416    29 C    1.416    27 C    0.107
    31   6 C    3.972 --    32 C    1.442    30 N    1.416    51 H    0.972
                            28 C    0.109
    32   6 C    3.987 --    31 C    1.442    27 C    1.393    52 H    0.973
                            29 C    0.109
    33   6 C    3.920 --    26 C    1.322    37 N    1.222    34 C    1.176
    34   6 C    3.963 --    35 C    1.649    33 C    1.176    53 H    0.972
    35   6 C    3.960 --    34 C    1.649    36 C    1.175    54 H    0.975
    36   6 C    3.923 --     2 C    1.364    37 N    1.213    35 C    1.175
    37   7 N    3.402 --    33 C    1.222    36 C    1.213     1 Ni   0.664
    38   1 H    1.000 --     2 C    0.970
    39   1 H    0.997 --     4 C    0.975
    40   1 H    1.004 --     5 C    0.972
    41   1 H    1.003 --    10 C    0.973
    42   1 H    1.013 --    11 C    0.972
    43   1 H    1.013 --    13 C    0.972
    44   1 H    1.003 --    14 C    0.973
    45   1 H    1.004 --    16 C    0.973
    46   1 H    1.002 --    17 C    0.973
    47   1 H    1.002 --    22 C    0.973
    48   1 H    1.004 --    23 C    0.973
    49   1 H    1.004 --    28 C    0.973
    50   1 H    1.013 --    29 C    0.972
    51   1 H    1.013 --    31 C    0.972
    52   1 H    1.004 --    32 C    0.973
    53   1 H    1.004 --    34 C    0.972
    54   1 H    0.997 --    35 C    0.975
    55  28 Ni   3.010 --    61 N    0.664    91 N    0.664    79 N    0.661
                            72 N    0.661
    56   6 C    3.935 --    57 C    1.364    90 C    1.364    92 H    0.970
    57   6 C    3.923 --    56 C    1.364    61 N    1.214    58 C    1.174
    58   6 C    3.960 --    59 C    1.651    57 C    1.174    93 H    0.975
    59   6 C    3.963 --    58 C    1.651    60 C    1.176    94 H    0.972
    60   6 C    3.920 --    62 C    1.324    61 N    1.221    59 C    1.176
    61   7 N    3.402 --    60 C    1.221    57 C    1.214    55 Ni   0.664
    62   6 C    3.939 --    69 C    1.330    60 C    1.324    63 C    1.022
    63   6 C    3.986 --    68 C    1.395    64 C    1.395    62 C    1.022
                            66 N    0.107
    64   6 C    3.988 --    65 C    1.441    63 C    1.395    95 H    0.973
                            67 C    0.109
    65   6 C    3.972 --    64 C    1.441    66 N    1.416    96 H    0.972
                            68 C    0.109
    66   7 N    3.031 --    67 C    1.416    65 C    1.416    63 C    0.107
    67   6 C    3.972 --    68 C    1.441    66 N    1.416    97 H    0.972
                            64 C    0.109
    68   6 C    3.988 --    67 C    1.441    63 C    1.395    98 H    0.973
                            65 C    0.109
    69   6 C    3.915 --    62 C    1.330    72 N    1.206    70 C    1.183
    70   6 C    3.959 --    71 C    1.637    69 C    1.183    99 H    0.973
    71   6 C    3.961 --    70 C    1.637    73 C    1.190   100 H    0.973
    72   7 N    3.407 --    73 C    1.239    69 C    1.206    55 Ni   0.661
    73   6 C    3.904 --    74 C    1.265    72 N    1.239    71 C    1.190
    74   6 C    3.944 --    73 C    1.265    75 C    1.265   112 C    1.180
    75   6 C    3.904 --    74 C    1.265    79 N    1.238    76 C    1.191
    76   6 C    3.961 --    77 C    1.636    75 C    1.191   101 H    0.973
    77   6 C    3.959 --    76 C    1.636    78 C    1.183   102 H    0.972
    78   6 C    3.915 --    80 C    1.327    79 N    1.207    77 C    1.183
    79   7 N    3.406 --    75 C    1.238    78 C    1.207    55 Ni   0.661
    80   6 C    3.939 --    78 C    1.327    87 C    1.322    81 C    1.027
    81   6 C    3.986 --    86 C    1.393    82 C    1.393    80 C    1.027
                            84 N    0.107
    82   6 C    3.987 --    83 C    1.442    81 C    1.393   103 H    0.973
                            85 C    0.109
    83   6 C    3.972 --    82 C    1.442    84 N    1.416   104 H    0.972
                            86 C    0.109
    84   7 N    3.030 --    85 C    1.416    83 C    1.416    81 C    0.107
    85   6 C    3.972 --    86 C    1.442    84 N    1.416   105 H    0.972
                            82 C    0.109
    86   6 C    3.987 --    85 C    1.442    81 C    1.393   106 H    0.973
                            83 C    0.109
    87   6 C    3.920 --    80 C    1.322    91 N    1.222    88 C    1.176
    88   6 C    3.963 --    89 C    1.649    87 C    1.176   107 H    0.972
    89   6 C    3.960 --    88 C    1.649    90 C    1.175   108 H    0.975
    90   6 C    3.923 --    56 C    1.364    91 N    1.213    89 C    1.175
    91   7 N    3.402 --    87 C    1.222    90 C    1.213    55 Ni   0.664
    92   1 H    1.000 --    56 C    0.970
    93   1 H    0.997 --    58 C    0.975
    94   1 H    1.004 --    59 C    0.972
    95   1 H    1.003 --    64 C    0.973
    96   1 H    1.013 --    65 C    0.972
    97   1 H    1.013 --    67 C    0.972
    98   1 H    1.003 --    68 C    0.973
    99   1 H    1.004 --    70 C    0.973
   100   1 H    1.002 --    71 C    0.973
   101   1 H    1.002 --    76 C    0.973
   102   1 H    1.004 --    77 C    0.972
   103   1 H    1.004 --    82 C    0.973
   104   1 H    1.013 --    83 C    0.972
   105   1 H    1.013 --    85 C    0.972
   106   1 H    1.004 --    86 C    0.973
   107   1 H    1.004 --    88 C    0.972
   108   1 H    0.997 --    89 C    0.975
   109   6 C    3.938 --   110 C    2.486   111 C    1.302
   110   6 C    3.928 --   109 C    2.486    20 C    1.180   112 C    0.200
   111   6 C    3.938 --   112 C    2.486   109 C    1.302
   112   6 C    3.928 --   111 C    2.486    74 C    1.180   110 C    0.200
 ---------------------------------------------------------------------------

           -------------------------------------------------
          | TOTAL ENERGY             -200.054536507519 Eh   |
          | GRADIENT NORM               0.000460448884 Eh/α |
          | HOMO-LUMO GAP               1.220800222368 eV   |
           -------------------------------------------------

 * finished run on 2022/07/30 at 02:25:20.344
