   * xtb version 6.5.1 (b24c23e) compiled by 'conda@728c89f4b128' on 2022-07-12
          program call               : xtb Ni_PhOH_C4_3.xyz --gfn 1 --opt -T 48

   ID    Z sym.   atoms
    1   28 Ni     1, 59, 125
    2    6 C      2-6, 8-12, 14-18, 20-25, 27-31, 33-38, 60-64, 66-70, 72-76,
                  78-83, 85-89, 91-96, 117-124, 126-130, 132-136, 138-142,
                  144-149, 151-155, 157-162
    3    7 N      7, 19, 26, 39, 65, 77, 84, 97, 131, 143, 150, 163
    4    8 O      13, 32, 71, 90, 137, 156
    5    1 H      40-58, 98-116, 164-181

          :  Hamiltonian                  GFN1-xTB          :
 * total energy  :  -328.0064607 Eh     change        0.6025402E-11 Eh
 * total energy  :  -328.2245236 Eh     change       -0.2180629E+00 Eh
 * total energy  :  -328.2979944 Eh     change       -0.7347076E-01 Eh
 * total energy  :  -328.3429155 Eh     change       -0.4492116E-01 Eh
 * total energy  :  -328.3654651 Eh     change       -0.2254951E-01 Eh
 * total energy  :  -328.3862942 Eh     change       -0.2082917E-01 Eh
 * total energy  :  -328.4076896 Eh     change       -0.2139536E-01 Eh
 * total energy  :  -328.4337568 Eh     change       -0.2606718E-01 Eh
 * total energy  :  -328.4551516 Eh     change       -0.2139480E-01 Eh
 * total energy  :  -328.4763344 Eh     change       -0.2118286E-01 Eh
 * total energy  :  -328.8067420 Eh     change       -0.1112914E-05 Eh
 * total energy  :  -328.8067582 Eh     change       -0.1617872E-04 Eh
 * total energy  :  -328.8067715 Eh     change       -0.1330208E-04 Eh
 * total energy  :  -328.8067814 Eh     change       -0.9943094E-05 Eh
 * total energy  :  -328.8067895 Eh     change       -0.8075574E-05 Eh
 * total energy  :  -328.8067975 Eh     change       -0.8068863E-05 Eh
 * total energy  :  -328.8068065 Eh     change       -0.8971930E-05 Eh
 * total energy  :  -328.8068138 Eh     change       -0.7306761E-05 Eh
 * total energy  :  -328.8068166 Eh     change       -0.2779502E-05 Eh
   *** GEOMETRY OPTIMIZATION CONVERGED AFTER 94 ITERATIONS ***

 final structure:
================
181
 xtb: 6.5.1 (b24c23e)
Ni          31.15358826099799       -0.03013729287815       -0.01246823181573
C           27.75723830056476       -0.05888829873308       -0.09365927575314
C           28.41266763109650       -1.27117928326017       -0.04922442884481
C           27.73263724243469       -2.52938862179163       -0.00938061806407
C           28.68874770543317       -3.48438634004208        0.06202886520707
C           29.95302793888566       -2.80843262086230        0.05222952581860
N           29.77307114400568       -1.44876332062584       -0.00914038215677
C           31.17556641182103       -3.46253322663660        0.12598674078920
C           31.18773453470553       -4.94490150443816        0.19438943631262
C           30.71062639932337       -5.70757960196822       -0.87136304159369
C           30.72673252584092       -7.09276782217619       -0.81317105578133
C           31.21771716638654       -7.73099992421998        0.32332914778784
O           31.24979209611844       -9.08503260250667        0.42312471934521
C           31.69350141118982       -6.97994914563269        1.39656192707479
C           31.68000119813190       -5.59810348244581        1.32644099821265
C           32.38897104358709       -2.78851329373873        0.13179455990478
C           33.65850518906279       -3.44977549622570        0.15376184638065
C           34.60481547459865       -2.48192605696885        0.11623972796200
N           32.55732734389834       -1.42318571385034        0.07215947944436
C           33.91218603039940       -1.23384064171442        0.06685393720997
C           34.57035078366593       -0.00327053089769        0.01870559211572
C           33.89335472531815        1.21723990622259       -0.02291171284702
C           34.56715078870296        2.47499435982661       -0.08384591181023
C           33.60648173716041        3.42863220314688       -0.12051859654496
C           32.34698940060410        2.74963907058482       -0.07320556812162
N           32.53568321261946        1.38649411832458       -0.02447541815839
C           31.12307234710109        3.40414803954802       -0.10348358377671
C           31.11176095002868        4.88706380724361       -0.14663993081877
C           31.63546034564592        5.63342727578511        0.91140315880876
C           31.62761431964315        7.01659141540563        0.87421177123096
C           31.09751376804355        7.67532504228106       -0.23366915695141
O           31.10969819869883        9.03329362912451       -0.23960610684775
C           30.57388855028057        6.94381666602163       -1.29704962927580
C           30.58028145034401        5.55830466512852       -1.24788899589148
C           29.90985250061954        2.72845649962389       -0.10366786179107
C           28.63507279986235        3.38453449332700       -0.10436437115510
C           27.69348242254838        2.41255357116021       -0.11030506638845
C           28.39307794625596        1.16459395578447       -0.10013926705470
N           29.75084207917150        1.36498008490384       -0.08714327554788
H           26.67362125418327       -0.06809092250371       -0.11358710275535
H           26.66053824911406       -2.64512950201556       -0.02479988655495
H           28.56228824572547       -4.55289711706273        0.12578903868289
H           30.33911538896055       -5.21152516697136       -1.76113628609852
H           30.36116188299620       -7.68159555034253       -1.64763180867281
H           30.89730555542052       -9.50529010624575       -0.37278030094571
H           32.06880074380332       -7.48973869520130        2.27525925606125
H           32.04114947337215       -5.01314047003490        2.16487877683214
H           33.79751431675450       -4.51807434801818        0.18162190440132
H           35.67767578051384       -2.58730936146657        0.11724712804982
H           35.63825670436839        2.59557923780933       -0.10222613576003
H           33.72983730703486        4.49719107914387       -0.18601539842208
H           32.03823013695983        5.12085013399586        1.77779535636090
H           32.02783527034109        7.59839848713574        1.69528896393652
H           30.71829573454963        9.38539882525725       -1.05027575217825
H           30.16555963452214        7.46066381654847       -2.15891465759100
H           30.18375017353987        4.98954554091660       -2.08160875493358
H           28.49215021082161        4.45280214332605       -0.09134748596540
H           26.61954797563820        2.51097489770654       -0.11255531325248
Ni          58.00859196553282        0.00835339652518        0.00155460401302
C           61.40184623877082        0.03107775461653       -0.05995409451029
C           60.74330671145228        1.22851322107692       -0.24590428914727
C           61.41779858711035        2.47424956631014       -0.44685862055521
C           60.46080947672734        3.43009897209986       -0.49389293517252
C           59.20070192914265        2.76587535694316       -0.33116741466077
N           59.38412935792417        1.41244253874531       -0.19236001015436
C           57.98461353452586        3.43080149762572       -0.24123767260911
C           57.97348654729083        4.91085593642539       -0.35093778980070
C           58.34967535425537        5.53312096838814       -1.54108145752983
C           58.33584549756805        6.91507417385951       -1.65211310179986
C           57.94837845592598        7.69182085310246       -0.56282785627939
O           57.92261005026771        9.04815841579818       -0.62738253824485
C           57.57393395205131        7.08191583984432        0.63299500307509
C           57.58501274748420        5.70172118670278        0.73242008510862
C           56.77842369584077        2.76827562419256       -0.05843762763469
C           55.51200187058636        3.43231434936107        0.00956500288869
C           54.56637433203782        2.46596203171473        0.08927356598197
N           56.60834732969747        1.40234428854427       -0.01152136900453
C           55.25541647973946        1.21539754264988        0.06133550310810
C           54.59553604816811       -0.01591513328831        0.03238790210673
C           55.27415368229711       -1.23686387037881        0.00279034053496
C           54.60620739459605       -2.49793125575021       -0.04962131290470
C           55.56745051853607       -3.44972781882807        0.02193462740170
C           56.82041462913090       -2.76544837060494        0.12582048367192
N           56.62973025635143       -1.40256417200655        0.07877548566435
C           58.03958165491570       -3.41193900601478        0.27984414550384
C           58.04866537549654       -4.88897599151866        0.40953960754020
C           57.39972001802292       -5.51000039233630        1.47949369528586
C           57.40737810294677       -6.88734937850549        1.60961802810020
C           58.06298809390029       -7.66767803658326        0.65896766552640
O           58.04813821933475       -9.01653065455997        0.81492830068242
C           58.71041957114107       -7.06251913590054       -0.41567855941559
C           58.70375723399597       -5.68118251884661       -0.53350245438851
C           59.24933092991792       -2.73012100937779        0.31377821568518
C           60.51999294801117       -3.36712536520107        0.50015655926990
C           61.46266028000525       -2.40178523637722        0.39119199473488
C           60.76682111286967       -1.17426469161397        0.15484629335827
N           59.40974300255628       -1.37833793253293        0.13635222725941
H           62.48555197522634        0.03958002255758       -0.07343632040871
H           62.48777097678115        2.58405912742644       -0.52519725587424
H           60.58526513981229        4.49425908528475       -0.61166667881192
H           58.64021442327399        4.92854673464033       -2.39306237397341
H           58.62314658246371        7.39404864739430       -2.58202361445484
H           58.19952322112888        9.36444401932389       -1.49779896936100
H           57.27850698627132        7.69871352198179        1.47271543085768
H           57.30405947781157        5.22728719302318        1.66598688920248
H           55.37271509006030        4.50059636373623       -0.01754346283737
H           53.49542378892613        2.57399513997211        0.14929150902808
H           53.53844705395306       -2.62251015093944       -0.13064766100876
H           55.44919938756262       -4.52068299388888       -0.00087350907229
H           56.89901419265900       -4.90208647398811        2.22472253521707
H           56.91115717276766       -7.37132370152874        2.44171244473781
H           58.53079678301131       -9.45872308628366        0.10369704333411
H           59.21518788348354       -7.67419783928112       -1.15577825018714
H           59.19742822741674       -5.21189517214891       -1.37722983985582
H           60.65955737730378       -4.41826159582884        0.69378925833352
H           62.53475262589674       -2.49203513943084        0.46548267149959
C           37.19872472977023        0.01292352235545       -0.00168327301373
C           35.97778182395611        0.00700973874642        0.01117292487366
C           38.55018181803109        0.01859906262297       -0.01184197564010
C           39.77124529229570        0.01889427545713       -0.02546237232412
C           50.61816117728284       -0.04138812032549        0.01713214670928
C           49.39664009590646       -0.04240070666445        0.00739398988571
C           51.96840686138817       -0.03714828663592        0.02431008985457
C           53.18985073216612       -0.02680422806669        0.02921895294001
Ni          44.58506939417967        0.00625169453726       -0.04009113190481
C           41.17737554694472        0.02012476114880       -0.03527156518262
C           41.85543913266773        0.96784453466802        0.73631797535829
C           41.19907885155655        1.91583662067009        1.57827783494944
C           42.15893272157172        2.75194882532447        2.04458615151853
C           43.39814679293831        2.31755806792489        1.47592514496684
N           43.20535817740593        1.18829852567734        0.71314038449729
C           44.60154591418751        2.99927594823173        1.61198236528247
C           44.61130228861122        4.29265615144196        2.33340552308693
C           45.41091979875338        4.46705662847623        3.46618853764790
C           45.42071814286341        5.67024504305958        4.14854723251397
C           44.63029324649546        6.72659413790761        3.69886356160297
O           44.66677901715448        7.89441610921866        4.38997812792925
C           43.83105853194721        6.56901059739664        2.56882049418593
C           43.82180797001588        5.35701992601418        1.89622060986879
C           45.79804449637665        2.50869676521498        1.10311909416041
C           47.04543639747095        3.20679631766538        1.16790570731319
C           47.99668253832738        2.35221640211168        0.71750872218254
N           45.97733763763758        1.25736065864653        0.55820548978041
C           47.32661299918654        1.14149167332822        0.36672861147987
C           47.99213747603815       -0.03000873457749       -0.00763186207715
C           47.30956161134758       -1.18425030980937       -0.40353873360016
C           47.96045660179088       -2.40476533353158       -0.75631767412225
C           47.00180181080555       -3.22927562127457       -1.24571104936718
C           45.76884748896194       -2.50466793406241       -1.19793749904228
N           45.96284312022938       -1.26688029073569       -0.62824768937667
C           44.57163244686914       -2.96309446637285       -1.73506365404550
C           44.56998545531957       -4.24249625062749       -2.48081261385998
C           43.75201868190679       -5.29954343447082       -2.07910723537925
C           43.74981855640813       -6.49804950725654       -2.77538075723739
C           44.56724460515661       -6.64989733638269       -3.89318001310686
O           44.59283662619329       -7.80469942028494       -4.60661516068171
C           45.38769383035104       -5.60161819545292       -4.30643370021536
C           45.38832480848696       -4.41167190075637       -3.60101213566790
C           43.37686473848865       -2.26703816338339       -1.59500352954603
C           42.13307508524274       -2.67925362613308       -2.17038942786199
C           41.17976208668781       -1.85008841105828       -1.67876408525231
C           41.84555899504822       -0.92365169146953       -0.82060616516571
N           43.19409899611293       -1.15194413623676       -0.80870880580423
H           40.13933816333009        1.92906487265124        1.77595501585879
H           42.04701165709317        3.58661780044682        2.71722210046198
H           46.01552767677806        3.64134826013937        3.82435931283099
H           46.03363671252322        5.80544173897313        5.03110379142211
H           44.08180454911204        8.55594255969854        3.99681379387994
H           43.22099104309734        7.39515362025629        2.21961977085701
H           43.20931502594247        5.24049457218183        1.00904901486885
H           47.16847612143462        4.22089733852132        1.51149251153864
H           49.05896278858086        2.51270245243516        0.62763145374907
H           49.01635298407412       -2.59079065617879       -0.64308802306119
H           47.11047829039943       -4.24002977958873       -1.60375505129938
H           43.12614220607395       -5.18866117791930       -1.20059929926711
H           43.11696367657891       -7.31837261301957       -2.45402562794557
H           43.98673477675756       -8.46086557650880       -4.23710928591059
H           46.01529949811559       -5.73226347272978       -5.17933133071104
H           46.01634205260949       -3.59181027968497       -3.93133312564661
H           42.01322017662225       -3.49615883041330       -2.86315607678957
H           40.11911548682367       -1.85264586186956       -1.87204707493782

          :  Hamiltonian                  GFN1-xTB          :
         :: total energy            -328.806816599818 Eh    ::
         :: gradient norm              0.000528225614 Eh/a0 ::
         :: HOMO-LUMO gap              1.056050776482 eV    ::
         :: SCC energy              -333.816391210880 Eh    ::
         :: repulsion energy           5.173651657100 Eh    ::

    * Orbital Energies and Occupations

         #    Occupation            Energy/Eh            Energy/eV
      -------------------------------------------------------------
         1        2.0000           -0.8061616             -21.9368
       ...           ...                  ...                  ...
       287        2.0000           -0.3965582             -10.7909
       288        2.0000           -0.3964825             -10.7888
       289        2.0000           -0.3960890             -10.7781
       290        2.0000           -0.3956767             -10.7669
       291        2.0000           -0.3955538             -10.7636
       292        2.0000           -0.3955087             -10.7623
       293        2.0000           -0.3948988             -10.7457
       294        2.0000           -0.3947763             -10.7424
       295        2.0000           -0.3946269             -10.7383
       296        2.0000           -0.3945781             -10.7370
       297        2.0000           -0.3934527             -10.7064
       298        2.0000           -0.3879144             -10.5557
       299        2.0000           -0.3799815             -10.3398 (HOMO)
       300                         -0.3411724              -9.2838 (LUMO)
       301                         -0.3325753              -9.0498
       302                         -0.3292349              -8.9589
       303                         -0.3279320              -8.9235
       304                         -0.3279241              -8.9233
       305                         -0.3277856              -8.9195
       306                         -0.3266241              -8.8879
       307                         -0.3257234              -8.8634
       308                         -0.3251426              -8.8476
       309                         -0.3014084              -8.2017
       310                         -0.2936117              -7.9896
       ...                                ...                  ...
       627                          1.5199035              41.3587
      -------------------------------------------------------------
                  HL-Gap            0.0388092 Eh            1.0561 eV

Wiberg/Mayer (AO) data.
largest (>0.10) Wiberg bond orders for each atom

     #   Z sym  total        # sym  WBO       # sym  WBO       # sym  WBO
 ---------------------------------------------------------------------------
     1  28 Ni   3.006 --     7 N    0.664    39 N    0.664    26 N    0.661
                            19 N    0.661
     2   6 C    3.935 --     3 C    1.364    38 C    1.364    40 H    0.970
     3   6 C    3.924 --     2 C    1.364     7 N    1.214     4 C    1.175
     4   6 C    3.959 --     5 C    1.648     3 C    1.175    41 H    0.975
     5   6 C    3.963 --     4 C    1.648     6 C    1.177    42 H    0.973
     6   6 C    3.919 --     8 C    1.324     7 N    1.221     5 C    1.177
     7   7 N    3.403 --     6 C    1.221     3 C    1.214     1 Ni   0.664
     8   6 C    3.940 --    16 C    1.330     6 C    1.324     9 C    1.023
     9   6 C    3.989 --    10 C    1.396    15 C    1.385     8 C    1.023
    10   6 C    3.988 --    11 C    1.451     9 C    1.396    43 H    0.973
                            14 C    0.105
    11   6 C    3.988 --    10 C    1.451    12 C    1.373    44 H    0.970
                            15 C    0.103
    12   6 C    3.902 --    11 C    1.373    14 C    1.365    13 O    1.040
    13   8 O    2.044 --    12 C    1.040    45 H    0.865
    14   6 C    3.990 --    15 C    1.466    12 C    1.365    46 H    0.971
                            10 C    0.105
    15   6 C    3.989 --    14 C    1.466     9 C    1.385    47 H    0.973
                            11 C    0.103
    16   6 C    3.915 --     8 C    1.330    19 N    1.207    17 C    1.184
    17   6 C    3.960 --    18 C    1.637    16 C    1.184    48 H    0.973
    18   6 C    3.961 --    17 C    1.637    20 C    1.191    49 H    0.973
    19   7 N    3.407 --    20 C    1.238    16 C    1.207     1 Ni   0.661
    20   6 C    3.907 --    21 C    1.267    19 N    1.238    18 C    1.191
    21   6 C    3.944 --    22 C    1.267    20 C    1.267   118 C    1.175
    22   6 C    3.907 --    21 C    1.267    26 N    1.238    23 C    1.191
    23   6 C    3.961 --    24 C    1.636    22 C    1.191    50 H    0.973
    24   6 C    3.960 --    23 C    1.636    25 C    1.184    51 H    0.972
    25   6 C    3.915 --    27 C    1.329    26 N    1.207    24 C    1.184
    26   7 N    3.407 --    22 C    1.238    25 C    1.207     1 Ni   0.661
    27   6 C    3.940 --    25 C    1.329    35 C    1.323    28 C    1.025
    28   6 C    3.989 --    34 C    1.395    29 C    1.385    27 C    1.025
    29   6 C    3.988 --    30 C    1.466    28 C    1.385    52 H    0.973
                            33 C    0.103
    30   6 C    3.990 --    29 C    1.466    31 C    1.365    53 H    0.971
                            34 C    0.105
    31   6 C    3.902 --    33 C    1.372    30 C    1.365    32 O    1.040
    32   8 O    2.044 --    31 C    1.040    54 H    0.865
    33   6 C    3.988 --    34 C    1.452    31 C    1.372    55 H    0.970
                            29 C    0.103
    34   6 C    3.988 --    33 C    1.452    28 C    1.395    56 H    0.973
                            30 C    0.105
    35   6 C    3.919 --    27 C    1.323    39 N    1.222    36 C    1.178
    36   6 C    3.963 --    37 C    1.648    35 C    1.178    57 H    0.973
    37   6 C    3.959 --    36 C    1.648    38 C    1.176    58 H    0.975
    38   6 C    3.924 --     2 C    1.364    39 N    1.214    37 C    1.176
    39   7 N    3.403 --    35 C    1.222    38 C    1.214     1 Ni   0.664
    40   1 H    1.000 --     2 C    0.970
    41   1 H    0.998 --     4 C    0.975
    42   1 H    1.005 --     5 C    0.973
    43   1 H    1.004 --    10 C    0.973
    44   1 H    0.999 --    11 C    0.970
    45   1 H    0.887 --    13 O    0.865
    46   1 H    0.999 --    14 C    0.971
    47   1 H    1.004 --    15 C    0.973
    48   1 H    1.005 --    17 C    0.973
    49   1 H    1.002 --    18 C    0.973
    50   1 H    1.002 --    23 C    0.973
    51   1 H    1.005 --    24 C    0.972
    52   1 H    1.004 --    29 C    0.973
    53   1 H    0.999 --    30 C    0.971
    54   1 H    0.887 --    32 O    0.865
    55   1 H    0.999 --    33 C    0.970
    56   1 H    1.004 --    34 C    0.973
    57   1 H    1.005 --    36 C    0.973
    58   1 H    0.998 --    37 C    0.975
    59  28 Ni   3.012 --    65 N    0.665    97 N    0.664    84 N    0.662
                            77 N    0.662
    60   6 C    3.933 --    61 C    1.364    96 C    1.363    98 H    0.970
    61   6 C    3.924 --    60 C    1.364    65 N    1.213    62 C    1.176
    62   6 C    3.959 --    63 C    1.648    61 C    1.176    99 H    0.975
    63   6 C    3.963 --    62 C    1.648    64 C    1.178   100 H    0.973
    64   6 C    3.919 --    66 C    1.323    65 N    1.221    63 C    1.178
    65   7 N    3.402 --    64 C    1.221    61 C    1.213    59 Ni   0.665
    66   6 C    3.939 --    74 C    1.330    64 C    1.323    67 C    1.022
    67   6 C    3.989 --    68 C    1.396    73 C    1.386    66 C    1.022
    68   6 C    3.988 --    69 C    1.451    67 C    1.396   101 H    0.973
                            72 C    0.106
    69   6 C    3.988 --    68 C    1.451    70 C    1.373   102 H    0.970
                            73 C    0.103
    70   6 C    3.902 --    69 C    1.373    72 C    1.365    71 O    1.040
    71   8 O    2.044 --    70 C    1.040   103 H    0.865
    72   6 C    3.990 --    73 C    1.465    70 C    1.365   104 H    0.971
                            68 C    0.106
    73   6 C    3.989 --    72 C    1.465    67 C    1.386   105 H    0.973
                            69 C    0.103
    74   6 C    3.914 --    66 C    1.330    77 N    1.205    75 C    1.184
    75   6 C    3.959 --    76 C    1.636    74 C    1.184   106 H    0.972
    76   6 C    3.961 --    75 C    1.636    78 C    1.191   107 H    0.973
    77   7 N    3.407 --    78 C    1.239    74 C    1.205    59 Ni   0.662
    78   6 C    3.905 --    79 C    1.264    77 N    1.239    76 C    1.191
    79   6 C    3.943 --    78 C    1.264    80 C    1.264   124 C    1.181
    80   6 C    3.905 --    79 C    1.264    84 N    1.239    81 C    1.192
    81   6 C    3.961 --    82 C    1.635    80 C    1.192   108 H    0.973
    82   6 C    3.959 --    81 C    1.635    83 C    1.185   109 H    0.973
    83   6 C    3.915 --    85 C    1.328    84 N    1.206    82 C    1.185
    84   7 N    3.406 --    80 C    1.239    83 C    1.206    59 Ni   0.662
    85   6 C    3.939 --    83 C    1.328    93 C    1.322    86 C    1.027
    86   6 C    3.989 --    92 C    1.394    87 C    1.383    85 C    1.027
    87   6 C    3.988 --    88 C    1.467    86 C    1.383   110 H    0.973
                            91 C    0.102
    88   6 C    3.990 --    87 C    1.467    89 C    1.364   111 H    0.971
                            92 C    0.105
    89   6 C    3.901 --    91 C    1.372    88 C    1.364    90 O    1.040
    90   8 O    2.044 --    89 C    1.040   112 H    0.865
    91   6 C    3.988 --    92 C    1.452    89 C    1.372   113 H    0.970
                            87 C    0.102
    92   6 C    3.988 --    91 C    1.452    86 C    1.394   114 H    0.973
                            88 C    0.105
    93   6 C    3.919 --    85 C    1.322    97 N    1.221    94 C    1.178
    94   6 C    3.963 --    95 C    1.647    93 C    1.178   115 H    0.973
    95   6 C    3.959 --    94 C    1.647    96 C    1.176   116 H    0.975
    96   6 C    3.924 --    60 C    1.363    97 N    1.214    95 C    1.176
    97   7 N    3.402 --    93 C    1.221    96 C    1.214    59 Ni   0.664
    98   1 H    1.000 --    60 C    0.970
    99   1 H    0.998 --    62 C    0.975
   100   1 H    1.005 --    63 C    0.973
   101   1 H    1.004 --    68 C    0.973
   102   1 H    0.999 --    69 C    0.970
   103   1 H    0.887 --    71 O    0.865
   104   1 H    0.999 --    72 C    0.971
   105   1 H    1.004 --    73 C    0.973
   106   1 H    1.005 --    75 C    0.972
   107   1 H    1.002 --    76 C    0.973
   108   1 H    1.002 --    81 C    0.973
   109   1 H    1.005 --    82 C    0.973
   110   1 H    1.005 --    87 C    0.973
   111   1 H    0.999 --    88 C    0.971
   112   1 H    0.887 --    90 O    0.865
   113   1 H    0.999 --    91 C    0.970
   114   1 H    1.005 --    92 C    0.973
   115   1 H    1.005 --    94 C    0.973
   116   1 H    0.998 --    95 C    0.975
   117   6 C    3.937 --   118 C    2.489   119 C    1.298
   118   6 C    3.923 --   117 C    2.489    21 C    1.175   120 C    0.199
   119   6 C    3.934 --   120 C    2.488   117 C    1.298
   120   6 C    3.925 --   119 C    2.488   126 C    1.178   118 C    0.199
   121   6 C    3.935 --   122 C    2.482   123 C    1.304
   122   6 C    3.927 --   121 C    2.482   145 C    1.184   124 C    0.200
   123   6 C    3.938 --   124 C    2.483   121 C    1.304
   124   6 C    3.925 --   123 C    2.483    79 C    1.181   122 C    0.200
   125  28 Ni   3.014 --   143 N    0.662   150 N    0.662   131 N    0.661
                           163 N    0.661
   126   6 C    3.933 --   127 C    1.264   162 C    1.263   120 C    1.178
   127   6 C    3.907 --   126 C    1.264   131 N    1.236   128 C    1.194
   128   6 C    3.959 --   129 C    1.632   127 C    1.194   164 H    0.973
   129   6 C    3.961 --   128 C    1.632   130 C    1.187   165 H    0.973
   130   6 C    3.913 --   132 C    1.323   131 N    1.206   129 C    1.187
   131   7 N    3.398 --   127 C    1.236   130 C    1.206   125 Ni   0.661
   132   6 C    3.935 --   140 C    1.323   130 C    1.323   133 C    1.032
   133   6 C    3.988 --   139 C    1.392   134 C    1.381   132 C    1.032
   134   6 C    3.987 --   135 C    1.468   133 C    1.381   166 H    0.972
                           138 C    0.102
   135   6 C    3.990 --   134 C    1.468   136 C    1.363   167 H    0.971
                           139 C    0.104
   136   6 C    3.900 --   138 C    1.371   135 C    1.363   137 O    1.042
   137   8 O    2.044 --   136 C    1.042   168 H    0.865
   138   6 C    3.988 --   139 C    1.453   136 C    1.371   169 H    0.970
                           134 C    0.102
   139   6 C    3.987 --   138 C    1.453   133 C    1.392   170 H    0.972
                           135 C    0.104
   140   6 C    3.913 --   132 C    1.323   143 N    1.205   141 C    1.187
   141   6 C    3.960 --   142 C    1.631   140 C    1.187   171 H    0.973
   142   6 C    3.960 --   141 C    1.631   144 C    1.195   172 H    0.973
   143   7 N    3.399 --   144 C    1.238   140 C    1.205   125 Ni   0.662
   144   6 C    3.905 --   145 C    1.261   143 N    1.238   142 C    1.195
   145   6 C    3.934 --   146 C    1.262   144 C    1.261   122 C    1.184
   146   6 C    3.905 --   145 C    1.262   150 N    1.237   147 C    1.195
   147   6 C    3.960 --   148 C    1.631   146 C    1.195   173 H    0.974
   148   6 C    3.960 --   147 C    1.631   149 C    1.188   174 H    0.973
   149   6 C    3.913 --   151 C    1.322   150 N    1.205   148 C    1.188
   150   7 N    3.399 --   146 C    1.237   149 C    1.205   125 Ni   0.662
   151   6 C    3.935 --   159 C    1.323   149 C    1.322   152 C    1.033
   152   6 C    3.988 --   153 C    1.391   158 C    1.381   151 C    1.033
   153   6 C    3.987 --   154 C    1.454   152 C    1.391   175 H    0.972
                           157 C    0.104
   154   6 C    3.988 --   153 C    1.454   155 C    1.371   176 H    0.970
                           158 C    0.102
   155   6 C    3.900 --   154 C    1.371   157 C    1.363   156 O    1.041
   156   8 O    2.044 --   155 C    1.041   177 H    0.865
   157   6 C    3.990 --   158 C    1.468   155 C    1.363   178 H    0.971
                           153 C    0.104
   158   6 C    3.987 --   157 C    1.468   152 C    1.381   179 H    0.972
                           154 C    0.102
   159   6 C    3.913 --   151 C    1.323   163 N    1.205   160 C    1.187
   160   6 C    3.961 --   161 C    1.631   159 C    1.187   180 H    0.973
   161   6 C    3.960 --   160 C    1.631   162 C    1.194   181 H    0.973
   162   6 C    3.907 --   126 C    1.263   163 N    1.237   161 C    1.194
   163   7 N    3.398 --   162 C    1.237   159 C    1.205   125 Ni   0.661
   164   1 H    1.002 --   128 C    0.973
   165   1 H    1.005 --   129 C    0.973
   166   1 H    1.005 --   134 C    0.972
   167   1 H    0.999 --   135 C    0.971
   168   1 H    0.886 --   137 O    0.865
   169   1 H    0.999 --   138 C    0.970
   170   1 H    1.005 --   139 C    0.972
   171   1 H    1.004 --   141 C    0.973
   172   1 H    1.002 --   142 C    0.973
   173   1 H    1.002 --   147 C    0.974
   174   1 H    1.004 --   148 C    0.973
   175   1 H    1.005 --   153 C    0.972
   176   1 H    0.999 --   154 C    0.970
   177   1 H    0.887 --   156 O    0.865
   178   1 H    0.999 --   157 C    0.971
   179   1 H    1.005 --   158 C    0.972
   180   1 H    1.005 --   160 C    0.973
   181   1 H    1.002 --   161 C    0.973
 ---------------------------------------------------------------------------

           -------------------------------------------------
          | TOTAL ENERGY             -328.806816599818 Eh   |
          | GRADIENT NORM               0.000528225614 Eh/α |
          | HOMO-LUMO GAP               1.056050776482 eV   |
           -------------------------------------------------

 * finished run on 2022/07/30 at 06:00:42.885
