   * xtb version 6.5.1 (b24c23e) compiled by 'conda@728c89f4b128' on 2022-07-12
          program call               : xtb Ph2Me_C6_2.xyz --gfn 1 --opt -T 48

   ID    Z sym.   atoms
    1    6 C      1-5, 7-10, 12-30, 33-40, 70-74, 76-79, 81-99, 102-109,
                  139-144
    2    7 N      6, 11, 31, 32, 75, 80, 100, 101
    3    1 H      41-69, 110-138
########################################################################
[WARNING] Please study the warnings concerning your input carefully
-1- prog_main_parseArguments: Unknown option '-T' provided
########################################################################

          :  Hamiltonian                  GFN1-xTB          :
 * total energy  :  -221.0472011 Eh     change       -0.4149570E-11 Eh
 * total energy  :  -221.3938986 Eh     change       -0.3466975E+00 Eh
 * total energy  :  -221.4786675 Eh     change       -0.8476891E-01 Eh
 * total energy  :  -221.5120112 Eh     change       -0.3334368E-01 Eh
 * total energy  :  -221.5236009 Eh     change       -0.1158969E-01 Eh
 * total energy  :  -221.5304151 Eh     change       -0.6814186E-02 Eh
 * total energy  :  -221.5333464 Eh     change       -0.2931358E-02 Eh
 * total energy  :  -221.5351212 Eh     change       -0.1774779E-02 Eh
 * total energy  :  -221.5365796 Eh     change       -0.1458351E-02 Eh
 * total energy  :  -221.5379032 Eh     change       -0.1323662E-02 Eh
 * total energy  :  -221.5457295 Eh     change       -0.2219955E-04 Eh
 * total energy  :  -221.5457565 Eh     change       -0.2695492E-04 Eh
 * total energy  :  -221.5457795 Eh     change       -0.2300353E-04 Eh
 * total energy  :  -221.5457921 Eh     change       -0.1257745E-04 Eh
 * total energy  :  -221.5457993 Eh     change       -0.7221433E-05 Eh
 * total energy  :  -221.5458056 Eh     change       -0.6290140E-05 Eh
 * total energy  :  -221.5458119 Eh     change       -0.6288481E-05 Eh
 * total energy  :  -221.5458169 Eh     change       -0.5014605E-05 Eh
 * total energy  :  -221.5458199 Eh     change       -0.3060831E-05 Eh
   *** GEOMETRY OPTIMIZATION CONVERGED AFTER 66 ITERATIONS ***

 final structure:
================
144
 xtb: 6.5.1 (b24c23e)
C           10.31152515595311        0.12891724220349        0.01137130048337
C           10.91698838726162        1.32660958195148        0.36964318490116
C           10.26177497280223        2.53163140387836        0.74954200459863
C           11.22145207585748        3.46833394643584        1.01276250974347
C           12.49412047983755        2.86861323904412        0.79262042180188
N           12.25949559463380        1.57635473881091        0.41596934649932
C           13.75511360055338        3.45652982887827        0.94120272874912
C           14.97220498121220        2.80137123235315        0.74210075047455
C           16.26722589919466        3.45009449812780        0.84223158508267
C           17.19125632293130        2.50098011155972        0.58601272129757
N           15.13142538941537        1.48958645796942        0.41248336624822
C           16.45941378475194        1.27733029064582        0.32167761684968
C           17.10033687186852        0.05706265828362        0.02478045430450
C           16.46776502183555       -1.16385773974723       -0.27865514796417
C           17.11545749656780       -2.39892422407967       -0.54559509761072
C           16.15143042547295       -3.33358540380766       -0.80453683889614
C           14.88424461756181       -2.69410988591328       -0.71275247492453
C           13.62487239426908       -3.27393305291401       -0.89850684111966
C           13.60084050914476       -4.70544683910577       -1.28684308384952
C           12.98014983819241       -5.64709071321324       -0.46669969131952
C           12.96460547127644       -6.99172343657698       -0.82070516418965
C           12.28324525945521       -8.00295291726741        0.06127910633807
C           13.57112714777641       -7.39190054732270       -2.00783239146612
C           14.19336030304700       -6.46446321510724       -2.83799493708818
C           14.82941017812284       -6.90533568691021       -4.12866980948663
C           14.20583462642776       -5.12285382416139       -2.47189983105902
C           12.40664796853009       -2.60404000746464       -0.74533472613751
C           11.10525365424437       -3.20463412413049       -0.99322466393346
C           10.18825270185150       -2.25061908539014       -0.73427335974040
C           10.92843996502137       -1.06496108742437       -0.33963141899033
N           12.26095514763581       -1.31192864126057       -0.36643387707954
N           15.12753246865160       -1.38655541660246       -0.38314310048888
C           13.78322924318916        4.88590337792157        1.34061495238679
C           14.37987123046905        5.26660115118433        2.54115657588177
C           14.40689946481631        6.60383223665341        2.92486377359233
C           15.06463483873568        7.00273357161716        4.21829327148409
C           13.83658441197314        7.56266117697238        2.09424208570646
C           13.23745639668351        7.19852194471994        0.89129770842378
C           12.64443131956854        8.24913382044709       -0.00838376073031
C           13.21161086533441        5.85875806403811        0.52077510085424
H            9.22612261715176        0.13623783671581        0.00693497479339
H            9.19199682103298        2.65119269726416        0.81478211290040
H           11.06795898910648        4.48448684851885        1.33824138909586
H           12.98699284085973        0.90101566992809        0.20647085846417
H           16.42520077998354        4.49297339392366        1.06473343765414
H           18.26520299518747        2.59546102082714        0.56398937844532
H           18.18345458052545       -2.54542353001351       -0.53261965128573
H           16.30135069934866       -4.37688081939289       -1.02948926154596
H           12.52627714383361       -5.32589854323020        0.46438587604960
H           11.25666739017274       -8.15892827733485       -0.27816732505077
H           12.80115615395771       -8.96170628560091        0.02360003433389
H           12.25087102039610       -7.65898483400916        1.09513514176499
H           13.56208014678115       -8.44043419416775       -2.28739771902631
H           15.63884199706202       -6.23266002479296       -4.41284968015164
H           15.22537387840449       -7.91729123476713       -4.04009357555892
H           14.08631557403025       -6.90066283356287       -4.92938354429591
H           14.67568309902748       -4.38935966650922       -3.11811888368978
H           10.94144109057945       -4.21524481906909       -1.33136563104263
H            9.11322429385180       -2.31038228402593       -0.80287112712877
H           14.40355656848152       -0.69166635612132       -0.23278672063040
H           14.80946109925378        4.50870635255165        3.18704733148890
H           14.84081050257611        6.28015001839405        5.00381182114177
H           14.72870314037109        7.98865669827899        4.53946092881661
H           16.14879403193114        7.03548439026434        4.08903902564744
H           13.85595001256978        8.60727954925023        2.38758415236940
H           12.21082901282607        9.06047631617180        0.57693816363673
H           13.42258675887445        8.67165313546479       -0.64823333806371
H           11.87187950826291        7.82307960767727       -0.64865151361221
H           12.75988603583698        5.56503889247499       -0.42053112542630
C           33.06625082660599       -0.11755898272473       -0.05631625537520
C           32.46046086772012       -1.32981112463978       -0.36105838838953
C           33.11499073179508       -2.55895694036486       -0.65530007021839
C           32.15458429735648       -3.49951532048537       -0.90156287844838
C           30.88213445952686       -2.87307680531946       -0.77436982876475
N           31.11765171476540       -1.56919564800997       -0.44088520660253
C           29.62088596368447       -3.45786122570494       -0.93147724901697
C           28.40363391939839       -2.79572705377798       -0.75983329706043
C           27.10833004029506       -3.41186140310226       -0.98434895184771
C           26.18388947902370       -2.46402283507221       -0.72504209533919
N           28.24397201257132       -1.49519644528884       -0.38817721071202
C           26.91573382776399       -1.26925445651742       -0.35103474545722
C           26.27443607651569       -0.06319417401918       -0.00122023006706
C           26.90709366333391        1.14670394626561        0.34310751822400
C           26.26000137989797        2.35212960281716        0.72325874546678
C           27.22481388896248        3.28945627393871        0.96933856172396
C           28.49192830040040        2.68611676376491        0.73797669962601
C           29.75166242948020        3.27719381230325        0.87866898995348
C           29.77588907832530        4.70952195349953        1.26562271962750
C           30.37097964739435        5.10476792404363        2.46304902868379
C           30.38514211104100        6.44418586521268        2.83648126877246
C           31.03628727312728        6.86804551930766        4.12533167703904
C           29.80522994871258        7.39229014916420        1.99858605062878
C           29.20982786762679        7.01423462364867        0.79896722712296
C           28.60413822964436        8.05029733810759       -0.10905230019585
C           29.19634095791266        5.67101775351776        0.43866541515560
C           30.97008869143466        2.61955460951177        0.68199524516921
C           32.27159549973639        3.26079609718734        0.78477667757839
C           33.18908085814722        2.30745626777086        0.52513066499607
C           32.44909637110306        1.08752847126460        0.25358659182841
N           31.11628387886287        1.31457309193419        0.35030653134370
N           28.24772224356791        1.38911813125260        0.36964989915668
C           29.59290032378711       -4.89310183959907       -1.31058491775505
C           29.02245590671124       -5.83313288228955       -0.45458008502265
C           28.99663032603883       -7.18070197024947       -0.80047335494799
C           28.36918374604744       -8.18447760349823        0.12875781475361
C           29.54001111031768       -7.58259935321696       -2.01609063342407
C           30.11201796968274       -6.65523174015931       -2.88294629032480
C           30.67467472202784       -7.10093149393085       -4.20568865798843
C           30.13862336196238       -5.31241475582276       -2.52358210001760
H           34.15163431391005       -0.12138752250448       -0.06468942409680
H           34.18485855621198       -2.69387558318319       -0.66776742342706
H           32.30710961843501       -4.53894104121670       -1.14328561991983
H           30.39067402500081       -0.88220117751303       -0.27130759244589
H           26.95057360230963       -4.42768324595430       -1.30882047973379
H           25.10959924466633       -2.53823443712196       -0.78098052774604
H           25.19182348896301        2.47502815343235        0.80171914010025
H           27.07586878444512        4.30694024565327        1.29203790894210
H           30.80566217616734        4.35491547626831        3.11487457656799
H           32.06965572490093        7.16856340676634        3.93760098709020
H           30.51146140979595        7.71736238320025        4.56361958592566
H           31.04571596587752        6.04896270028868        4.84453202473546
H           29.81401483392499        8.43862639333399        2.28627617471513
H           27.80673238325512        7.61865828239759       -0.71424534944610
H           28.19951643168729        8.88252842045694        0.46745309508596
H           29.36771848330785        8.44442409260483       -0.78359903462019
H           28.74570913732801        5.36603098702088       -0.49957672936397
H           32.43487450512611        4.30183029311749        1.01309067925931
H           34.26438103312289        2.39246484239441        0.50363995408618
H           28.97119733491427        0.71034559658744        0.15645729558204
H           28.61254047614706       -5.50947432234081        0.49587163789677
H           28.61788034252352       -7.95774469840446        1.16607395466711
H           28.70664137472298       -9.19480527889327       -0.10233267891458
H           27.28188634921429       -8.15500940842085        0.02834849952286
H           29.52079076952578       -8.63193014367853       -2.29212094264172
H           31.11576688076181       -8.09474711025640       -4.12409800256870
H           29.87774490136713       -7.14447553178524       -4.95167630417558
H           31.43479322160925       -6.40474818990912       -4.56044245395639
H           30.57060267402668       -4.57924705017239       -3.19607891376936
C           22.30151473309514       -0.01828150681291        0.01982400345305
C           21.07318856384916        0.00024008508799        0.02663631530805
C           19.72941799217864        0.01914027670792        0.03003939012851
C           18.50547275885856        0.04203184124906        0.02763753789855
C           23.64528396202418       -0.03547383513433        0.01443849247922
C           24.86931467851375       -0.05198898465519        0.00774376358724

          :  Hamiltonian                  GFN1-xTB          :
         :: total energy            -221.545819936199 Eh    ::
         :: gradient norm              0.000376651457 Eh/a0 ::
         :: HOMO-LUMO gap              1.004778209556 eV    ::
         :: SCC energy              -225.290803257509 Eh    ::
         :: repulsion energy           3.860010059448 Eh    ::

    * Orbital Energies and Occupations

         #    Occupation            Energy/Eh            Energy/eV
      -------------------------------------------------------------
         1        2.0000           -0.8004648             -21.7818
       ...           ...                  ...                  ...
       193        2.0000           -0.4179867             -11.3740
       194        2.0000           -0.4168649             -11.3435
       195        2.0000           -0.4161914             -11.3251
       196        2.0000           -0.4133562             -11.2480
       197        2.0000           -0.4131174             -11.2415
       198        2.0000           -0.4122508             -11.2179
       199        2.0000           -0.4118452             -11.2069
       200        2.0000           -0.4114136             -11.1951
       201        2.0000           -0.4095237             -11.1437
       202        2.0000           -0.3953570             -10.7582
       203        2.0000           -0.3950206             -10.7491
       204        2.0000           -0.3836929             -10.4408
       205        2.0000           -0.3744548             -10.1894 (HOMO)
       206                         -0.3375299              -9.1847 (LUMO)
       207                         -0.3275226              -8.9123
       208                         -0.3270675              -8.9000
       209                         -0.3259313              -8.8690
       210                         -0.2974818              -8.0949
       211                         -0.2899757              -7.8906
       212                         -0.2813838              -7.6568
       213                         -0.2613179              -7.1108
       214                         -0.2576145              -7.0100
       215                         -0.2574444              -7.0054
       216                         -0.2570789              -6.9955
       ...                                ...                  ...
       460                          1.5832876              43.0834
      -------------------------------------------------------------
                  HL-Gap            0.0369249 Eh            1.0048 eV

Wiberg/Mayer (AO) data.
largest (>0.10) Wiberg bond orders for each atom

     #   Z sym  total        # sym  WBO       # sym  WBO       # sym  WBO
 ---------------------------------------------------------------------------
     1   6 C    3.924 --    30 C    1.365     2 C    1.346    41 H    0.971
     2   6 C    3.903 --     1 C    1.346     3 C    1.230     6 N    1.170
     3   6 C    3.953 --     4 C    1.594     2 C    1.230    42 H    0.977
     4   6 C    3.959 --     3 C    1.594     5 C    1.235    43 H    0.974
     5   6 C    3.896 --     7 C    1.303     4 C    1.235     6 N    1.176
     6   7 N    3.469 --     5 C    1.176     2 C    1.170    44 H    0.873
     7   6 C    3.939 --     8 C    1.337     5 C    1.303    33 C    1.026
     8   6 C    3.915 --     7 C    1.337    11 N    1.284     9 C    1.125
     9   6 C    3.966 --    10 C    1.709     8 C    1.125    45 H    0.974
    10   6 C    3.964 --     9 C    1.709    12 C    1.129    46 H    0.974
    11   7 N    3.022 --    12 C    1.346     8 C    1.284
    12   6 C    3.909 --    11 N    1.346    13 C    1.253    10 C    1.129
    13   6 C    3.936 --    12 C    1.253    14 C    1.250   142 C    1.193
    14   6 C    3.885 --    13 C    1.250    15 C    1.249    32 N    1.190
    15   6 C    3.959 --    16 C    1.582    14 C    1.249    47 H    0.975
    16   6 C    3.955 --    15 C    1.582    17 C    1.241    48 H    0.974
    17   6 C    3.898 --    18 C    1.310    16 C    1.241    32 N    1.164
    18   6 C    3.925 --    27 C    1.321    17 C    1.310    19 C    1.029
    19   6 C    3.988 --    26 C    1.396    20 C    1.395    18 C    1.029
                            23 C    0.103
    20   6 C    3.986 --    21 C    1.418    19 C    1.395    49 H    0.972
                            24 C    0.103
    21   6 C    3.988 --    20 C    1.418    23 C    1.414    22 C    1.020
                            26 C    0.103
    22   6 C    3.996 --    21 C    1.020    52 H    0.983    51 H    0.982
                            50 H    0.971
    23   6 C    3.987 --    24 C    1.415    21 C    1.414    53 H    0.972
                            19 C    0.103
    24   6 C    3.988 --    26 C    1.417    23 C    1.415    25 C    1.020
                            20 C    0.103
    25   6 C    3.995 --    24 C    1.020    54 H    0.983    55 H    0.982
                            56 H    0.971
    26   6 C    3.985 --    24 C    1.417    19 C    1.396    57 H    0.972
                            21 C    0.103
    27   6 C    3.929 --    18 C    1.321    31 N    1.316    28 C    1.118
    28   6 C    3.967 --    29 C    1.722    27 C    1.118    58 H    0.974
    29   6 C    3.966 --    28 C    1.722    30 C    1.117    59 H    0.976
    30   6 C    3.930 --     1 C    1.365    31 N    1.301    29 C    1.117
    31   7 N    3.012 --    27 C    1.316    30 C    1.301
    32   7 N    3.474 --    14 C    1.190    17 C    1.164    60 H    0.873
    33   6 C    3.988 --    34 C    1.400    40 C    1.394     7 C    1.026
                            37 C    0.102
    34   6 C    3.987 --    35 C    1.414    33 C    1.400    61 H    0.972
                            38 C    0.104
    35   6 C    3.988 --    37 C    1.419    34 C    1.414    36 C    1.020
                            40 C    0.103
    36   6 C    3.996 --    35 C    1.020    63 H    0.985    62 H    0.980
                            64 H    0.971
    37   6 C    3.988 --    35 C    1.419    38 C    1.412    65 H    0.972
                            33 C    0.102
    38   6 C    3.988 --    40 C    1.420    37 C    1.412    39 C    1.020
                            34 C    0.104
    39   6 C    3.996 --    38 C    1.020    68 H    0.984    66 H    0.982
                            67 H    0.971
    40   6 C    3.986 --    38 C    1.420    33 C    1.394    69 H    0.972
                            35 C    0.103
    41   1 H    1.002 --     1 C    0.971
    42   1 H    0.998 --     3 C    0.977
    43   1 H    1.005 --     4 C    0.974
    44   1 H    0.986 --     6 N    0.873
    45   1 H    1.005 --     9 C    0.974
    46   1 H    1.003 --    10 C    0.974
    47   1 H    1.002 --    15 C    0.975
    48   1 H    1.005 --    16 C    0.974
    49   1 H    1.003 --    20 C    0.972
    50   1 H    1.006 --    22 C    0.971
    51   1 H    1.004 --    22 C    0.982
    52   1 H    1.004 --    22 C    0.983
    53   1 H    1.000 --    23 C    0.972
    54   1 H    1.004 --    25 C    0.983
    55   1 H    1.004 --    25 C    0.982
    56   1 H    1.006 --    25 C    0.971
    57   1 H    1.003 --    26 C    0.972
    58   1 H    1.006 --    28 C    0.974
    59   1 H    0.999 --    29 C    0.976
    60   1 H    0.987 --    32 N    0.873
    61   1 H    1.003 --    34 C    0.972
    62   1 H    1.005 --    36 C    0.980
    63   1 H    1.004 --    36 C    0.985
    64   1 H    1.006 --    36 C    0.971
    65   1 H    1.000 --    37 C    0.972
    66   1 H    1.004 --    39 C    0.982
    67   1 H    1.006 --    39 C    0.971
    68   1 H    1.004 --    39 C    0.984
    69   1 H    1.003 --    40 C    0.972
    70   6 C    3.924 --    99 C    1.365    71 C    1.346   110 H    0.971
    71   6 C    3.903 --    70 C    1.346    72 C    1.230    75 N    1.170
    72   6 C    3.953 --    73 C    1.595    71 C    1.230   111 H    0.977
    73   6 C    3.959 --    72 C    1.595    74 C    1.235   112 H    0.974
    74   6 C    3.896 --    76 C    1.303    73 C    1.235    75 N    1.176
    75   7 N    3.469 --    74 C    1.176    71 C    1.170   113 H    0.873
    76   6 C    3.939 --    77 C    1.338    74 C    1.303   102 C    1.025
    77   6 C    3.915 --    76 C    1.338    80 N    1.284    78 C    1.125
    78   6 C    3.966 --    79 C    1.710    77 C    1.125   114 H    0.974
    79   6 C    3.964 --    78 C    1.710    81 C    1.128   115 H    0.974
    80   7 N    3.022 --    81 C    1.346    77 C    1.284
    81   6 C    3.909 --    80 N    1.346    82 C    1.252    79 C    1.128
    82   6 C    3.936 --    81 C    1.252    83 C    1.250   144 C    1.193
    83   6 C    3.885 --    82 C    1.250    84 C    1.249   101 N    1.190
    84   6 C    3.959 --    85 C    1.583    83 C    1.249   116 H    0.975
    85   6 C    3.955 --    84 C    1.583    86 C    1.241   117 H    0.974
    86   6 C    3.898 --    87 C    1.310    85 C    1.241   101 N    1.164
    87   6 C    3.925 --    96 C    1.322    86 C    1.310    88 C    1.027
    88   6 C    3.988 --    95 C    1.396    89 C    1.396    87 C    1.027
                            92 C    0.103
    89   6 C    3.986 --    90 C    1.418    88 C    1.396   118 H    0.972
                            93 C    0.103
    90   6 C    3.988 --    89 C    1.418    92 C    1.414    91 C    1.020
                            95 C    0.103
    91   6 C    3.996 --    90 C    1.020   121 H    0.983   120 H    0.982
                           119 H    0.971
    92   6 C    3.988 --    93 C    1.416    90 C    1.414   122 H    0.972
                            88 C    0.103
    93   6 C    3.988 --    95 C    1.417    92 C    1.416    94 C    1.020
                            89 C    0.103
    94   6 C    3.995 --    93 C    1.020   123 H    0.983   124 H    0.982
                           125 H    0.971
    95   6 C    3.985 --    93 C    1.417    88 C    1.396   126 H    0.972
                            90 C    0.103
    96   6 C    3.929 --    87 C    1.322   100 N    1.316    97 C    1.118
    97   6 C    3.967 --    98 C    1.722    96 C    1.118   127 H    0.974
    98   6 C    3.966 --    97 C    1.722    99 C    1.117   128 H    0.976
    99   6 C    3.930 --    70 C    1.365   100 N    1.301    98 C    1.117
   100   7 N    3.012 --    96 C    1.316    99 C    1.301
   101   7 N    3.474 --    83 C    1.190    86 C    1.164   129 H    0.873
   102   6 C    3.988 --   103 C    1.400   109 C    1.394    76 C    1.025
                           106 C    0.102
   103   6 C    3.987 --   104 C    1.413   102 C    1.400   130 H    0.972
                           107 C    0.104
   104   6 C    3.988 --   106 C    1.419   103 C    1.413   105 C    1.020
                           109 C    0.103
   105   6 C    3.996 --   104 C    1.020   132 H    0.985   131 H    0.980
                           133 H    0.971
   106   6 C    3.988 --   104 C    1.419   107 C    1.412   134 H    0.972
                           102 C    0.102
   107   6 C    3.988 --   109 C    1.420   106 C    1.412   108 C    1.020
                           103 C    0.104
   108   6 C    3.996 --   107 C    1.020   137 H    0.984   135 H    0.982
                           136 H    0.971
   109   6 C    3.986 --   107 C    1.420   102 C    1.394   138 H    0.972
                           104 C    0.103
   110   1 H    1.002 --    70 C    0.971
   111   1 H    0.998 --    72 C    0.977
   112   1 H    1.005 --    73 C    0.974
   113   1 H    0.986 --    75 N    0.873
   114   1 H    1.005 --    78 C    0.974
   115   1 H    1.003 --    79 C    0.974
   116   1 H    1.002 --    84 C    0.975
   117   1 H    1.005 --    85 C    0.974
   118   1 H    1.003 --    89 C    0.972
   119   1 H    1.006 --    91 C    0.971
   120   1 H    1.004 --    91 C    0.982
   121   1 H    1.004 --    91 C    0.983
   122   1 H    1.000 --    92 C    0.972
   123   1 H    1.004 --    94 C    0.983
   124   1 H    1.004 --    94 C    0.982
   125   1 H    1.006 --    94 C    0.971
   126   1 H    1.003 --    95 C    0.972
   127   1 H    1.005 --    97 C    0.974
   128   1 H    0.999 --    98 C    0.976
   129   1 H    0.987 --   101 N    0.873
   130   1 H    1.003 --   103 C    0.972
   131   1 H    1.005 --   105 C    0.980
   132   1 H    1.004 --   105 C    0.985
   133   1 H    1.006 --   105 C    0.971
   134   1 H    1.000 --   106 C    0.972
   135   1 H    1.004 --   108 C    0.982
   136   1 H    1.006 --   108 C    0.971
   137   1 H    1.004 --   108 C    0.984
   138   1 H    1.003 --   109 C    0.972
   139   6 C    3.925 --   140 C    2.366   143 C    1.337   142 C    0.190
   140   6 C    3.925 --   139 C    2.366   141 C    1.337   144 C    0.190
   141   6 C    3.932 --   142 C    2.446   140 C    1.337
   142   6 C    3.890 --   141 C    2.446    13 C    1.193   139 C    0.190
   143   6 C    3.932 --   144 C    2.446   139 C    1.337
   144   6 C    3.890 --   143 C    2.446    82 C    1.193   140 C    0.190
 ---------------------------------------------------------------------------

           -------------------------------------------------
          | TOTAL ENERGY             -221.545819936199 Eh   |
          | GRADIENT NORM               0.000376651457 Eh/α |
          | HOMO-LUMO GAP               1.004778209556 eV   |
           -------------------------------------------------

 * finished run on 2022/07/27 at 21:43:15.200
