   * xtb version 6.5.1 (b24c23e) compiled by 'conda@728c89f4b128' on 2022-07-12
          program call               : xtb DHP_C6_3.xyz --gfn 1 --opt -T 48

   ID    Z sym.   atoms
    1    6 C      1-5, 7-10, 12-16, 18-23, 25-28, 30-35, 60-64, 66-69, 71-75,
                  77-82, 84-87, 89-94, 119-135, 137-140, 142-146, 148-153,
                  155-158, 160-165
    2    7 N      6, 11, 17, 24, 29, 36, 65, 70, 76, 83, 88, 95, 136, 141,
                  147, 154, 159, 166
    3    1 H      37-59, 96-118, 167-188

          :  Hamiltonian                  GFN1-xTB          :
 * total energy  :  -308.4767187 Eh     change       -0.1396529E-08 Eh
 * total energy  :  -308.6237704 Eh     change       -0.1470517E+00 Eh
 * total energy  :  -308.7114860 Eh     change       -0.8771569E-01 Eh
 * total energy  :  -308.7335453 Eh     change       -0.2205927E-01 Eh
 * total energy  :  -308.7504372 Eh     change       -0.1689191E-01 Eh
 * total energy  :  -308.7651204 Eh     change       -0.1468320E-01 Eh
 * total energy  :  -308.7826134 Eh     change       -0.1749301E-01 Eh
 * total energy  :  -308.8038593 Eh     change       -0.2124584E-01 Eh
 * total energy  :  -308.8312617 Eh     change       -0.2740243E-01 Eh
 * total energy  :  -308.8661470 Eh     change       -0.3488531E-01 Eh
 * total energy  :  -309.2007294 Eh     change       -0.2473346E-04 Eh
 * total energy  :  -309.2007429 Eh     change       -0.1353229E-04 Eh
 * total energy  :  -309.2007821 Eh     change       -0.3919999E-04 Eh
 * total energy  :  -309.2008004 Eh     change       -0.1831823E-04 Eh
 * total energy  :  -309.2008084 Eh     change       -0.7969858E-05 Eh
 * total energy  :  -309.2008154 Eh     change       -0.6993850E-05 Eh
 * total energy  :  -309.2008214 Eh     change       -0.6001179E-05 Eh
 * total energy  :  -309.2008270 Eh     change       -0.5647389E-05 Eh
 * total energy  :  -309.2008303 Eh     change       -0.3244079E-05 Eh
   *** GEOMETRY OPTIMIZATION CONVERGED AFTER 93 ITERATIONS ***

 final structure:
================
188
 xtb: 6.5.1 (b24c23e)
C           22.88176787187184        0.06366412614017        0.01625310635259
C           23.49045910952589        1.23777806827586        0.44007282649751
C           22.83691881758086        2.42147555930750        0.88433951629143
C           23.79796297940429        3.33931610652080        1.20262440287648
C           25.07041204285853        2.75016194215023        0.95330767673490
N           24.83339669770546        1.48091576420306        0.50553526402262
C           26.33243048211006        3.32488197447853        1.13921497768023
C           26.36584857032744        4.73291865029388        1.60499262135687
C           25.82158709187286        5.72573295993061        0.88524906460905
C           25.82752098018441        7.15957365424822        1.34810262736499
N           26.79459798116924        7.36370235614380        2.42958264274520
C           27.17241256878802        6.32107575251431        3.23481458443993
C           27.02008892876083        5.03578316461977        2.86975625027301
C           27.54722677128542        2.67088297081657        0.91728083292823
C           28.84565391229838        3.30209938534470        1.06998162827902
C           29.76571785246633        2.36478139970496        0.76227070315311
N           27.70015698010279        1.38106034183965        0.50998039014767
C           29.02831466998601        1.16517665031733        0.41475676508449
C           29.66349376218998       -0.03523282145980        0.04026660603290
C           29.02882980792738       -1.23072146418732       -0.34581225012983
C           29.67445595134651       -2.44494126137970       -0.70045991044817
C           28.70859502679272       -3.35891575463529       -1.01911628354800
C           27.44217497551177       -2.72777574907533       -0.87606298200745
N           27.68780764371137       -1.44505190994067       -0.46129036889292
C           26.18127793952164       -3.29664488367755       -1.08661333681242
C           26.15481684397826       -4.70551405353839       -1.54771814174122
C           25.56560185389250       -5.67108219055208       -0.82644511156029
C           25.51479446924471       -7.10553008303314       -1.28370294813729
N           26.49210212600813       -7.35771593774279       -2.34616140095409
C           26.91521093121702       -6.33701124246141       -3.15775241974098
C           26.80827679355141       -5.04396133917408       -2.80459395570363
C           24.96558405880389       -2.63225777271116       -0.89320333407379
C           23.66113022211454       -3.21157131104508       -1.17310874607056
C           22.74844174688171       -2.26997947056782       -0.85858956838007
C           23.49424302355113       -1.11205262728599       -0.39889123474979
N           24.82537965485114       -1.36279512523034       -0.44157472987107
H           21.79635833532791        0.07544479607005        0.01071695601954
H           21.76718219337677        2.53994984888284        0.95304645144407
H           23.64542281973805        4.33526649723540        1.58567220596474
H           25.56030280048549        0.81701232733417        0.26032434955775
H           25.33699176649167        5.54209991678854       -0.06668355932857
H           24.81580850529190        7.45680385038471        1.68269007460714
H           26.10183843707219        7.82401354064669        0.51761818485336
H           26.72890210237936        8.26905570028361        2.87184483617771
H           27.67853579616876        6.61374866382094        4.14933936048036
H           27.36927465292050        4.22689753383112        3.49550083149393
H           29.00827398916075        4.32643260960954        1.36393978023270
H           30.84044314362697        2.45261581210505        0.75657303847996
H           30.74252254004978       -2.59183142894728       -0.70341778475320
H           28.85643554775976       -4.38265906552293       -1.32219179996505
H           26.96465602617113       -0.76185456735591       -0.26145267779691
H           25.08116267978907       -5.46149786471338        0.12004723655046
H           24.49709649650285       -7.35811803694403       -1.63618151186474
H           25.74395109676545       -7.77792405908877       -0.44607505126509
H           26.39272338880366       -8.26224156572266       -2.78400831426787
H           27.41835204046870       -6.65603994594568       -4.06502620895620
H           27.19068389818190       -4.25436686878230       -3.43580544629488
H           23.49181249230778       -4.19979602862063       -1.56951687889530
H           21.67303597074160       -2.32111639470705       -0.92944275044661
C           61.67475350688864       -0.06015560955411       -0.02376098101543
C           61.06672635596730       -1.27918440360269       -0.29388102106082
C           61.72052374623464       -2.52066934237875       -0.53235707466566
C           60.76024002230418       -3.46539925996625       -0.76191357711481
C           59.48815357167162       -2.82991684291210       -0.68197893027265
N           59.72439907847507       -1.51642224787795       -0.38760965040014
C           58.22676081314577       -3.41216650162828       -0.84785058016283
C           58.19392229360010       -4.85413415826522       -1.19453619617410
C           58.75655514341577       -5.32172119942186       -2.31913771023443
C           58.75124536285740       -6.78456022519516       -2.68007015611719
N           57.76511736784791       -7.52298843038779       -1.88702379746322
C           57.36725533497785       -7.05888081011972       -0.66029095416275
C           57.51918674232741       -5.77485407893374       -0.29087831509232
C           57.01169238117522       -2.73557144423793       -0.71096693160380
C           55.71485984532730       -3.34798273913450       -0.93665162658487
C           54.79400402250521       -2.38701941814204       -0.71682458083341
N           56.85726771582428       -1.42508883306700       -0.37684603795444
C           55.52938274935711       -1.18764543937490       -0.36437280837681
C           54.89261006696813        0.02934422849735       -0.05130484739977
C           55.52591020962060        1.24484520151512        0.26888783500326
C           54.87880116170349        2.46285055102200        0.60752089026789
C           55.84406624632432        3.40380331512316        0.83696293416691
C           57.11163988039357        2.79044609510233        0.63778875794957
N           56.86718820832547        1.48447757472499        0.30259816422765
C           58.37215012418238        3.38146861942286        0.77727919377925
C           58.39721831967070        4.82010924901934        1.13501440122439
C           58.97207851422679        5.25390634346610        2.26684866716087
C           59.02153127786507        6.71212975190785        2.64164314792917
N           58.05782843251486        7.49279190048322        1.86090868537562
C           57.64993727090388        7.05943896925358        0.62593262318153
C           57.75829742604353        5.77567878856135        0.24063230553263
C           59.58864359254127        2.71316768753328        0.60367318462320
C           60.89342423430685        3.35001249738005        0.69026097009905
C           61.80699698857964        2.38277986173349        0.47031907540756
C           61.06153991125611        1.15872810340025        0.23715159339237
N           59.72975058378812        1.39698621991553        0.31579157093763
H           62.76018577054474       -0.07008811545541       -0.01870563965501
H           62.78981203866857       -2.66056826588833       -0.52018261543763
H           60.91307962164775       -4.51373451132631       -0.96076676044677
H           58.99741240696152       -0.82117751957926       -0.25563980868954
H           59.25653486351808       -4.66667652971568       -3.02316076955648
H           59.75836830251014       -7.21779348087132       -2.53199259492122
H           58.49723515964421       -6.91145347587137       -3.74115187985557
H           57.82997087788370       -8.52580170851728       -1.98542986581646
H           56.84672233890392       -7.78676364901248       -0.04620923432823
H           57.15456812391916       -5.41513866011858        0.66069413953998
H           55.55384134107296       -4.37223297346158       -1.23174978562502
H           53.72002460861163       -2.45528346875995       -0.78533177328914
H           53.81016084439197        2.59127173924388        0.66974317002451
H           55.69514275021124        4.43197332532431        1.12410911857141
H           57.59104340791059        0.79794819116463        0.11728174536664
H           59.44537727188889        4.57253248636142        2.96412842665201
H           60.04270939198232        7.11034334496375        2.49192764311189
H           58.77715911121626        6.83793465192896        3.70501873150671
H           58.15838652806990        8.49149820648115        1.97142693139449
H           57.15725286121335        7.81276457494254        0.01942284972886
H           57.38759839977124        5.44233845911493       -0.71831865414934
H           61.06236646575188        4.39785853103583        0.87968748635718
H           62.88291760053569        2.46134564916338        0.45148652170178
C           34.86803569929783       -0.08595812625001        0.04900981950641
C           33.64018535057868       -0.08022520706484        0.04973085095377
C           32.29443883726126       -0.07003455387201        0.04831555837293
C           31.07108334501850       -0.05408555950295        0.04537663226708
C           36.21369341569638       -0.08658405489098        0.04607479493482
C           37.43728559293975       -0.08142477304393        0.03882683886159
C           50.91578724394201        0.06906577303082       -0.04738963124602
C           49.68794986463725        0.07358482920185       -0.04101698366060
C           48.34228511879395        0.07351868951145       -0.03321586937041
C           47.11872665744782        0.07021179844573       -0.02316817549244
C           52.26157030447438        0.05987938126844       -0.05080157834663
C           53.48495488162330        0.04578573575364       -0.05344768558825
C           38.84389486431136       -0.07465449193779        0.02958176784400
C           39.48011074461582       -0.27354900984707        1.26927709868639
C           38.84238233466397       -0.45830263485749        2.52352220390180
C           39.81628124388962       -0.59238935509902        3.47478930100074
C           41.07858076769251       -0.50171334937666        2.82689391092843
N           40.82386481472862       -0.30532436010890        1.49553208472281
C           42.34222156035846       -0.56946165264898        3.42370597762623
C           42.37331908189125       -0.80875708874862        4.88850652919528
C           41.89897525797814       -1.94203268165651        5.42702436018294
C           41.97124332076827       -2.22496958333267        6.90461743819320
N           42.21677157750150       -0.99771595957401        7.66647269245048
C           42.84709942861566        0.07128342113768        7.08470516571259
C           42.92861885221364        0.22361143211539        5.75107948911714
C           43.56237126586277       -0.43173539930122        2.75975723017136
C           44.85253314277695       -0.56788833569233        3.41190990452142
C           45.78622706239491       -0.39245713868105        2.45403091740599
N           43.73323387928492       -0.18863196888671        1.43164356841181
C           45.06499090059700       -0.15499542727513        1.21909769575863
C           45.71208447446381        0.06408511370062       -0.01269350394311
C           45.07574775664737        0.26646946450617       -1.25179194970579
C           45.71343260711690        0.45638854813079       -2.50529999364486
C           44.73952045241202        0.59191742702353       -3.45634292533222
C           43.47727788533143        0.49669609308957       -2.80904069977218
N           43.73199880216888        0.29677858162407       -1.47821774758336
C           42.21368754754938        0.56311839415773       -3.40604192708775
C           42.18227019154556        0.80511328481589       -4.87040543064727
C           42.65268801226441        1.94100798415228       -5.40676237624650
C           42.57913944779722        2.22626848980903       -6.88385760946015
N           42.33991531702711        0.99909325803294       -7.64784954681490
C           41.71277183639173       -0.07304830777471       -7.06826019545790
C           41.63083077730780       -0.22770514714614       -5.73494675599351
C           40.99366821237363        0.42197456062953       -2.74270649538642
C           39.70349923659111        0.55623273374291       -3.39521254773201
C           38.76982779230386        0.37900933760960       -2.43766443339793
C           39.49111122551343        0.14268820116358       -1.20251356054919
N           40.82282432523236        0.17805942123005       -1.41471203161736
H           37.77452404354243       -0.47721888209728        2.67058119280595
H           39.67691995904139       -0.73234653189635        4.53430084911526
H           41.53711091495314       -0.19093061390607        0.78316936444351
H           41.50717763103199       -2.74504316360090        4.81352364253085
H           42.76447872237593       -2.96734986195624        7.11351604475950
H           41.02345188577852       -2.65709443408859        7.25323444335934
H           42.41817131009539       -1.15706444917503        8.64306866558179
H           43.19829072192744        0.82529602981647        7.78188487516542
H           43.36123804922062        1.11056129020236        5.31064561742881
H           45.00044559227604       -0.78248262859016        4.45810696825672
H           46.86022266766211       -0.42240510743400        2.54598925285401
H           46.78128200708554        0.47788357846830       -2.65204635190426
H           44.87882790194870        0.73585717286184       -4.51532935250534
H           43.01882472254678        0.17914694715488       -0.76630378801867
H           43.04167949312474        2.74427101537040       -4.79181646917666
H           41.78213234417468        2.96497582356088       -7.09147128400581
H           43.52473411423301        2.66376530298399       -7.23165121543695
H           42.13835986677868        1.15930398709554       -8.62428980136123
H           41.36481449776127       -0.82724813809674       -7.76685265664592
H           41.20092424014975       -1.11676622276738       -5.29610792253560
H           39.55558264497076        0.77093413677864       -4.44138596424578
H           37.69582490524900        0.40744808204759       -2.52994097888117

          :  Hamiltonian                  GFN1-xTB          :
         :: total energy            -309.200830274124 Eh    ::
         :: gradient norm              0.000368206899 Eh/a0 ::
         :: HOMO-LUMO gap              0.975342675647 eV    ::
         :: SCC energy              -314.320206220979 Eh    ::
         :: repulsion energy           5.274267184431 Eh    ::

    * Orbital Energies and Occupations

         #    Occupation            Energy/Eh            Energy/eV
      -------------------------------------------------------------
         1        2.0000           -0.7964573             -21.6727
       ...           ...                  ...                  ...
       271        2.0000           -0.4041596             -10.9977
       272        2.0000           -0.3910822             -10.6419
       273        2.0000           -0.3903184             -10.6211
       274        2.0000           -0.3903067             -10.6208
       275        2.0000           -0.3757680             -10.2252
       276        2.0000           -0.3756313             -10.2214
       277        2.0000           -0.3736672             -10.1680
       278        2.0000           -0.3700431             -10.0694
       279        2.0000           -0.3700288             -10.0690
       280        2.0000           -0.3699920             -10.0680
       281        2.0000           -0.3681620             -10.0182
       282        2.0000           -0.3680434             -10.0150
       283        2.0000           -0.3678114             -10.0087 (HOMO)
       284                         -0.3319682              -9.0333 (LUMO)
       285                         -0.3278829              -8.9221
       286                         -0.3276947              -8.9170
       287                         -0.3221446              -8.7660
       288                         -0.3219409              -8.7605
       289                         -0.3219222              -8.7599
       290                         -0.2983034              -8.1172
       291                         -0.2912832              -7.9262
       292                         -0.2912244              -7.9246
       293                         -0.2676950              -7.2844
       294                         -0.2669902              -7.2652
       ...                                ...                  ...
       616                          1.5859174              43.1550
      -------------------------------------------------------------
                  HL-Gap            0.0358432 Eh            0.9753 eV

Wiberg/Mayer (AO) data.
largest (>0.10) Wiberg bond orders for each atom

     #   Z sym  total        # sym  WBO       # sym  WBO       # sym  WBO
 ---------------------------------------------------------------------------
     1   6 C    3.925 --    35 C    1.364     2 C    1.347    37 H    0.971
     2   6 C    3.904 --     1 C    1.347     3 C    1.230     6 N    1.170
     3   6 C    3.954 --     4 C    1.594     2 C    1.230    38 H    0.977
     4   6 C    3.960 --     3 C    1.594     5 C    1.235    39 H    0.975
     5   6 C    3.897 --     7 C    1.304     4 C    1.235     6 N    1.175
     6   7 N    3.469 --     5 C    1.175     2 C    1.170    40 H    0.873
     7   6 C    3.941 --    14 C    1.333     5 C    1.304     8 C    1.027
     8   6 C    3.988 --     9 C    1.766    13 C    1.098     7 C    1.027
     9   6 C    3.969 --     8 C    1.766    10 C    1.013    41 H    0.972
    10   6 C    3.961 --     9 C    1.013    43 H    0.976    42 H    0.966
                            11 N    0.949
    11   7 N    3.249 --    12 C    1.162    10 C    0.949    44 H    0.928
                            13 C    0.127
    12   6 C    3.958 --    13 C    1.691    11 N    1.162    45 H    0.971
    13   6 C    3.967 --    12 C    1.691     8 C    1.098    46 H    0.974
                            11 N    0.127
    14   6 C    3.914 --     7 C    1.333    17 N    1.289    15 C    1.125
    15   6 C    3.966 --    16 C    1.711    14 C    1.125    47 H    0.973
    16   6 C    3.965 --    15 C    1.711    18 C    1.127    48 H    0.974
    17   7 N    3.023 --    18 C    1.340    14 C    1.289
    18   6 C    3.910 --    17 N    1.340    19 C    1.259    16 C    1.127
    19   6 C    3.938 --    18 C    1.259    20 C    1.253   122 C    1.183
    20   6 C    3.887 --    19 C    1.253    21 C    1.248    24 N    1.189
    21   6 C    3.959 --    22 C    1.583    20 C    1.248    49 H    0.975
    22   6 C    3.956 --    21 C    1.583    23 C    1.242    50 H    0.973
    23   6 C    3.897 --    25 C    1.308    22 C    1.242    24 N    1.164
    24   7 N    3.474 --    20 C    1.189    23 C    1.164    51 H    0.873
    25   6 C    3.928 --    32 C    1.321    23 C    1.308    26 C    1.029
    26   6 C    3.988 --    27 C    1.766    31 C    1.097    25 C    1.029
    27   6 C    3.970 --    26 C    1.766    28 C    1.013    52 H    0.972
    28   6 C    3.961 --    27 C    1.013    54 H    0.976    53 H    0.966
                            29 N    0.949
    29   7 N    3.247 --    30 C    1.161    28 C    0.949    55 H    0.928
                            31 C    0.127
    30   6 C    3.958 --    31 C    1.692    29 N    1.161    56 H    0.971
    31   6 C    3.967 --    30 C    1.692    26 C    1.097    57 H    0.974
                            29 N    0.127
    32   6 C    3.929 --    25 C    1.321    36 N    1.316    33 C    1.119
    33   6 C    3.967 --    34 C    1.720    32 C    1.119    58 H    0.974
    34   6 C    3.967 --    33 C    1.720    35 C    1.118    59 H    0.976
    35   6 C    3.932 --     1 C    1.364    36 N    1.302    34 C    1.118
    36   7 N    3.014 --    32 C    1.316    35 C    1.302
    37   1 H    1.002 --     1 C    0.971
    38   1 H    0.998 --     3 C    0.977
    39   1 H    1.007 --     4 C    0.975
    40   1 H    0.986 --     6 N    0.873
    41   1 H    1.003 --     9 C    0.972
    42   1 H    1.008 --    10 C    0.966
    43   1 H    1.019 --    10 C    0.976
    44   1 H    0.964 --    11 N    0.928
    45   1 H    1.001 --    12 C    0.971
    46   1 H    1.003 --    13 C    0.974
    47   1 H    1.006 --    15 C    0.973
    48   1 H    1.003 --    16 C    0.974
    49   1 H    1.002 --    21 C    0.975
    50   1 H    1.006 --    22 C    0.973
    51   1 H    0.988 --    24 N    0.873
    52   1 H    1.003 --    27 C    0.972
    53   1 H    1.007 --    28 C    0.966
    54   1 H    1.019 --    28 C    0.976
    55   1 H    0.964 --    29 N    0.928
    56   1 H    1.001 --    30 C    0.971
    57   1 H    1.003 --    31 C    0.974
    58   1 H    1.007 --    33 C    0.974
    59   1 H    0.999 --    34 C    0.976
    60   6 C    3.925 --    94 C    1.364    61 C    1.347    96 H    0.971
    61   6 C    3.904 --    60 C    1.347    62 C    1.230    65 N    1.170
    62   6 C    3.954 --    63 C    1.595    61 C    1.230    97 H    0.977
    63   6 C    3.960 --    62 C    1.595    64 C    1.235    98 H    0.975
    64   6 C    3.897 --    66 C    1.304    63 C    1.235    65 N    1.175
    65   7 N    3.469 --    64 C    1.175    61 C    1.170    99 H    0.873
    66   6 C    3.941 --    73 C    1.333    64 C    1.304    67 C    1.027
    67   6 C    3.988 --    68 C    1.766    72 C    1.098    66 C    1.027
    68   6 C    3.969 --    67 C    1.766    69 C    1.013   100 H    0.972
    69   6 C    3.961 --    68 C    1.013   102 H    0.976   101 H    0.966
                            70 N    0.949
    70   7 N    3.249 --    71 C    1.161    69 C    0.949   103 H    0.928
                            72 C    0.127
    71   6 C    3.958 --    72 C    1.691    70 N    1.161   104 H    0.971
    72   6 C    3.967 --    71 C    1.691    67 C    1.098   105 H    0.974
                            70 N    0.127
    73   6 C    3.914 --    66 C    1.333    76 N    1.289    74 C    1.125
    74   6 C    3.966 --    75 C    1.711    73 C    1.125   106 H    0.973
    75   6 C    3.965 --    74 C    1.711    77 C    1.127   107 H    0.974
    76   7 N    3.023 --    77 C    1.340    73 C    1.289
    77   6 C    3.910 --    76 N    1.340    78 C    1.259    75 C    1.127
    78   6 C    3.938 --    77 C    1.259    79 C    1.253   130 C    1.183
    79   6 C    3.887 --    78 C    1.253    80 C    1.248    83 N    1.189
    80   6 C    3.959 --    81 C    1.583    79 C    1.248   108 H    0.975
    81   6 C    3.956 --    80 C    1.583    82 C    1.242   109 H    0.973
    82   6 C    3.897 --    84 C    1.308    81 C    1.242    83 N    1.164
    83   7 N    3.474 --    79 C    1.189    82 C    1.164   110 H    0.873
    84   6 C    3.928 --    91 C    1.321    82 C    1.308    85 C    1.029
    85   6 C    3.988 --    86 C    1.766    90 C    1.097    84 C    1.029
    86   6 C    3.970 --    85 C    1.766    87 C    1.013   111 H    0.972
    87   6 C    3.961 --    86 C    1.013   113 H    0.976   112 H    0.966
                            88 N    0.949
    88   7 N    3.247 --    89 C    1.161    87 C    0.949   114 H    0.928
                            90 C    0.127
    89   6 C    3.958 --    90 C    1.692    88 N    1.161   115 H    0.971
    90   6 C    3.967 --    89 C    1.692    85 C    1.097   116 H    0.974
                            88 N    0.127
    91   6 C    3.929 --    84 C    1.321    95 N    1.316    92 C    1.119
    92   6 C    3.967 --    93 C    1.720    91 C    1.119   117 H    0.974
    93   6 C    3.967 --    92 C    1.720    94 C    1.118   118 H    0.976
    94   6 C    3.932 --    60 C    1.364    95 N    1.302    93 C    1.118
    95   7 N    3.014 --    91 C    1.316    94 C    1.302
    96   1 H    1.002 --    60 C    0.971
    97   1 H    0.998 --    62 C    0.977
    98   1 H    1.007 --    63 C    0.975
    99   1 H    0.986 --    65 N    0.873
   100   1 H    1.003 --    68 C    0.972
   101   1 H    1.008 --    69 C    0.966
   102   1 H    1.019 --    69 C    0.976
   103   1 H    0.964 --    70 N    0.928
   104   1 H    1.001 --    71 C    0.971
   105   1 H    1.003 --    72 C    0.974
   106   1 H    1.006 --    74 C    0.973
   107   1 H    1.003 --    75 C    0.974
   108   1 H    1.002 --    80 C    0.975
   109   1 H    1.006 --    81 C    0.973
   110   1 H    0.988 --    83 N    0.873
   111   1 H    1.003 --    86 C    0.972
   112   1 H    1.007 --    87 C    0.966
   113   1 H    1.019 --    87 C    0.976
   114   1 H    0.964 --    88 N    0.928
   115   1 H    1.001 --    89 C    0.971
   116   1 H    1.003 --    90 C    0.974
   117   1 H    1.007 --    92 C    0.974
   118   1 H    0.999 --    93 C    0.976
   119   6 C    3.922 --   120 C    2.375   123 C    1.328   122 C    0.189
   120   6 C    3.921 --   119 C    2.375   121 C    1.328   124 C    0.189
   121   6 C    3.932 --   122 C    2.456   120 C    1.328
   122   6 C    3.888 --   121 C    2.456    19 C    1.183   119 C    0.189
   123   6 C    3.929 --   124 C    2.454   119 C    1.328
   124   6 C    3.889 --   123 C    2.454   131 C    1.186   120 C    0.189
   125   6 C    3.921 --   126 C    2.375   129 C    1.327   128 C    0.189
   126   6 C    3.922 --   125 C    2.375   127 C    1.328   130 C    0.189
   127   6 C    3.929 --   128 C    2.454   126 C    1.328
   128   6 C    3.889 --   127 C    2.454   149 C    1.186   125 C    0.189
   129   6 C    3.932 --   130 C    2.456   125 C    1.327
   130   6 C    3.888 --   129 C    2.456    78 C    1.183   126 C    0.189
   131   6 C    3.927 --   165 C    1.258   132 C    1.250   124 C    1.186
   132   6 C    3.888 --   133 C    1.252   131 C    1.250   136 N    1.189
   133   6 C    3.957 --   134 C    1.579   132 C    1.252   167 H    0.975
   134   6 C    3.957 --   133 C    1.579   135 C    1.245   168 H    0.974
   135   6 C    3.894 --   137 C    1.303   134 C    1.245   136 N    1.165
   136   7 N    3.471 --   132 C    1.189   135 C    1.165   169 H    0.874
   137   6 C    3.930 --   144 C    1.336   135 C    1.303   138 C    1.023
   138   6 C    3.988 --   139 C    1.767   143 C    1.099   137 C    1.023
   139   6 C    3.970 --   138 C    1.767   140 C    1.013   170 H    0.972
   140   6 C    3.961 --   139 C    1.013   172 H    0.975   171 H    0.967
                           141 N    0.949
   141   7 N    3.250 --   142 C    1.162   140 C    0.949   173 H    0.928
                           143 C    0.127
   142   6 C    3.958 --   143 C    1.690   141 N    1.162   174 H    0.971
   143   6 C    3.967 --   142 C    1.690   138 C    1.099   175 H    0.973
                           141 N    0.127
   144   6 C    3.916 --   137 C    1.336   147 N    1.287   145 C    1.125
   145   6 C    3.967 --   146 C    1.710   144 C    1.125   176 H    0.973
   146   6 C    3.965 --   145 C    1.710   148 C    1.129   177 H    0.974
   147   7 N    3.012 --   148 C    1.341   144 C    1.287
   148   6 C    3.910 --   147 N    1.341   149 C    1.258   146 C    1.129
   149   6 C    3.927 --   148 C    1.258   150 C    1.250   128 C    1.186
   150   6 C    3.888 --   151 C    1.252   149 C    1.250   154 N    1.189
   151   6 C    3.957 --   152 C    1.579   150 C    1.252   178 H    0.975
   152   6 C    3.957 --   151 C    1.579   153 C    1.245   179 H    0.974
   153   6 C    3.894 --   155 C    1.303   152 C    1.245   154 N    1.165
   154   7 N    3.471 --   150 C    1.189   153 C    1.165   180 H    0.874
   155   6 C    3.930 --   162 C    1.336   153 C    1.303   156 C    1.023
   156   6 C    3.988 --   157 C    1.767   161 C    1.099   155 C    1.023
   157   6 C    3.970 --   156 C    1.767   158 C    1.013   181 H    0.972
   158   6 C    3.961 --   157 C    1.013   183 H    0.975   182 H    0.967
                           159 N    0.949
   159   7 N    3.249 --   160 C    1.162   158 C    0.949   184 H    0.928
                           161 C    0.127
   160   6 C    3.958 --   161 C    1.691   159 N    1.162   185 H    0.971
   161   6 C    3.967 --   160 C    1.691   156 C    1.099   186 H    0.973
                           159 N    0.127
   162   6 C    3.916 --   155 C    1.336   166 N    1.287   163 C    1.125
   163   6 C    3.967 --   164 C    1.710   162 C    1.125   187 H    0.973
   164   6 C    3.964 --   163 C    1.710   165 C    1.129   188 H    0.974
   165   6 C    3.910 --   166 N    1.341   131 C    1.258   164 C    1.129
   166   7 N    3.012 --   165 C    1.341   162 C    1.287
   167   1 H    1.002 --   133 C    0.975
   168   1 H    1.007 --   134 C    0.974
   169   1 H    0.988 --   136 N    0.874
   170   1 H    1.003 --   139 C    0.972
   171   1 H    1.009 --   140 C    0.967
   172   1 H    1.018 --   140 C    0.975
   173   1 H    0.963 --   141 N    0.928
   174   1 H    1.001 --   142 C    0.971
   175   1 H    1.003 --   143 C    0.973
   176   1 H    1.006 --   145 C    0.973
   177   1 H    1.003 --   146 C    0.974
   178   1 H    1.002 --   151 C    0.975
   179   1 H    1.007 --   152 C    0.974
   180   1 H    0.988 --   154 N    0.874
   181   1 H    1.003 --   157 C    0.972
   182   1 H    1.009 --   158 C    0.967
   183   1 H    1.018 --   158 C    0.975
   184   1 H    0.963 --   159 N    0.928
   185   1 H    1.001 --   160 C    0.971
   186   1 H    1.003 --   161 C    0.973
   187   1 H    1.006 --   163 C    0.973
   188   1 H    1.003 --   164 C    0.974
 ---------------------------------------------------------------------------

           -------------------------------------------------
          | TOTAL ENERGY             -309.200830274124 Eh   |
          | GRADIENT NORM               0.000368206899 Eh/α |
          | HOMO-LUMO GAP               0.975342675647 eV   |
           -------------------------------------------------

 * finished run on 2022/07/28 at 01:20:55.655
