   * xtb version 6.5.1 (b24c23e) compiled by 'conda@728c89f4b128' on 2022-07-12
          program call               : xtb Ni_p-CP_C8_3.xyz --gfn 1 --opt -T 48

   ID    Z sym.   atoms
    1   28 Ni     1, 63, 141
    2    6 C      2-6, 8-11, 13-24, 27-32, 35-39, 42, 43, 64-68, 70-73,
                  75-86, 89-94, 97-101, 104, 105, 125-140, 142-146, 148-151,
                  153-164, 167-172, 175-179, 182, 183
    3    7 N      7, 12, 33, 34, 69, 74, 95, 96, 147, 152, 173, 174
    4    8 O      25, 26, 40, 41, 87, 88, 102, 103, 165, 166, 180, 181
    5    1 H      44-62, 106-124, 184-201

          :  Hamiltonian                  GFN1-xTB          :
 * total energy  :  -385.3766099 Eh     change       -0.7122765E-08 Eh
 * total energy  :  -385.8553671 Eh     change       -0.4787572E+00 Eh
 * total energy  :  -386.0283835 Eh     change       -0.1730164E+00 Eh
 * total energy  :  -386.1257542 Eh     change       -0.9737079E-01 Eh
 * total energy  :  -386.2084317 Eh     change       -0.8267750E-01 Eh
 * total energy  :  -386.2814120 Eh     change       -0.7298024E-01 Eh
 * total energy  :  -386.3281646 Eh     change       -0.4675266E-01 Eh
 * total energy  :  -386.3582450 Eh     change       -0.3008039E-01 Eh
 * total energy  :  -386.3803062 Eh     change       -0.2206112E-01 Eh
 * total energy  :  -386.3945137 Eh     change       -0.1420752E-01 Eh
 * total energy  :  -386.4644320 Eh     change       -0.3961252E-04 Eh
 * total energy  :  -386.4644616 Eh     change       -0.2955390E-04 Eh
 * total energy  :  -386.4644825 Eh     change       -0.2091320E-04 Eh
 * total energy  :  -386.4645034 Eh     change       -0.2091849E-04 Eh
 * total energy  :  -386.4645224 Eh     change       -0.1900877E-04 Eh
 * total energy  :  -386.4645403 Eh     change       -0.1790333E-04 Eh
 * total energy  :  -386.4645567 Eh     change       -0.1633249E-04 Eh
 * total energy  :  -386.4645713 Eh     change       -0.1466684E-04 Eh
 * total energy  :  -386.4645724 Eh     change       -0.1059873E-05 Eh
   *** GEOMETRY OPTIMIZATION CONVERGED AFTER 68 ITERATIONS ***

 final structure:
================
201
 xtb: 6.5.1 (b24c23e)
Ni          30.87011702145148       -0.02346461762161        0.00567578131766
C           27.47547707267866       -0.06464407078287        0.03117630855367
C           28.13312073227825       -0.21012850973063        1.23442604327452
C           27.45778624051935       -0.36570842403918        2.48657538539283
C           28.41506120958498       -0.39633711160471        3.44223292667195
C           29.67590789760406       -0.26622517787224        2.77149026402624
N           29.49294789201654       -0.16438931153571        1.41520046761408
C           30.89357343371977       -0.16584094836981        3.43137209143873
C           32.10109647422521       -0.00752287415219        2.76535595402008
C           33.36708354528703        0.07645068761332        3.42873664082810
C           34.31280411410476        0.13131294061077        2.46108168182289
N           32.27095006143168        0.00245761330205        1.39916919810534
C           33.62408982534623        0.07118800366995        1.21115875032494
C           34.28462621501428        0.01872086269026       -0.01892642245052
C           33.60692622289198       -0.04834087801027       -1.23890150869340
C           34.27637170730080       -0.13409581453704       -2.49767894353932
C           33.31507149400618       -0.10804151665099       -3.45138143386093
C           32.06070832774694        0.00340166518127       -2.77048528334387
C           30.83932688913140        0.11486152042083       -3.42104403597400
C           30.82572193417134        0.17623277721413       -4.90175349309164
C           30.19246131419500       -0.82369808807200       -5.64424163744011
C           30.17799762124834       -0.76325231558995       -7.02554577277112
C           30.79135782855324        0.30073706206093       -7.68958162053405
C           30.74339805164330        0.32437671287643       -9.17128561356421
O           31.35651310742828        1.38832865207749       -9.71153168420140
O           30.21056687905163       -0.51804527643515       -9.84793567018970
C           31.42429448267665        1.30198327305370       -6.95242234005075
C           31.44259753098936        1.23649900976072       -5.57007589383477
C           29.62848627826915        0.17051154626988       -2.74314675408329
C           28.35808295202917        0.32600275515973       -3.38974122562166
C           27.41582890207829        0.27020303068383       -2.42011978669213
C           28.11145961423949        0.09300430394896       -1.18212442597394
N           29.46857067129895        0.06041717048654       -1.38475981124727
N           32.25056456440820        0.00725467176830       -1.40708377491030
C           30.90202829799262       -0.22972234808005        4.91304388215382
C           30.52771811869815       -1.40469850654354        5.56929856550841
C           30.53275502975606       -1.46314104272579        6.95086444669067
C           30.90749773292477       -0.34670184279032        7.70067225721171
C           30.89016213371908       -0.45648413160003        9.17931498810647
O           31.26348502284250        0.66942166019989        9.80565590841372
O           30.57536948611464       -1.45005449304267        9.78359292422103
C           31.28155543356533        0.82890146544298        7.04923624551206
C           31.28020656373361        0.88389487084633        5.66616160672098
H           26.39180849713353       -0.07066985092265        0.04023157424294
H           26.38729952242766       -0.42977054290397        2.59922003124609
H           28.29144370145097       -0.48361501265392        4.50934994736367
H           33.50515340184227        0.07755282562683        4.49749685884461
H           35.38361355764815        0.19453731031101        2.56775857452647
H           35.34505846389241       -0.20624166683989       -2.61907374712083
H           33.43365711884207       -0.16538739042247       -4.52098620222768
H           29.72467877238572       -1.65567745533299       -5.13028834090449
H           29.69264496372158       -1.53814255607548       -7.60869958143982
H           31.27986310983646        1.32928852601552      -10.67770727845224
H           31.89904473452914        2.13096231397796       -7.46383990040916
H           31.92455104456097        2.02018236552272       -4.99650654131385
H           28.21935720159271        0.46438163312642       -4.44959308479272
H           26.34400617008727        0.34225334608361       -2.51367866105274
H           30.24585730494229       -2.27509529912310        4.98784227887069
H           30.24746812740017       -2.37286767589074        7.46768533082612
H           31.22518516784933        0.51574910192986       10.76366279946583
H           31.57047468700826        1.69845627975910        7.62762514089841
H           31.55963155275445        1.80075543462958        5.15955081269319
Ni          68.00798717826082       -0.01123805850014       -0.03647228028029
C           71.40287237328754       -0.04589795457735       -0.07051019503263
C           70.74376376546340       -0.05685525864906       -1.28168487322827
C           71.41723013176102       -0.07240840283736       -2.54433170684492
C           70.45847762503564        0.00223548446819       -3.49608467819052
C           69.19865805927658        0.05776551418258       -2.81314587653228
N           69.38365948753065        0.00792711240972       -1.45428641084976
C           67.98054587179016        0.23635159264221       -3.45550539196272
C           66.77463403263367        0.32584927876483       -2.77390776278513
C           65.50875259754665        0.49485925062896       -3.42099642082878
C           64.56431885189889        0.44528854996370       -2.45174214852167
N           66.60599353375483        0.18014735734991       -1.41530717491267
C           65.25351254603417        0.23587510220218       -1.21831164788995
C           64.59323270491302        0.03989663391983       -0.00244058325020
C           65.27204880926459       -0.17572117367838        1.19971032063339
C           64.60421409746380       -0.41124362203457        2.44007717253007
C           65.56686838182436       -0.50239436120487        3.38846849459150
C           66.82056581965492       -0.31167209772906        2.72413176283977
C           68.04276564949586       -0.27741655957648        3.38191416368933
C           68.05900535204898       -0.39118041598857        4.85945221886553
C           68.69741436166993       -1.46917904943775        5.47796813197344
C           68.71537607378059       -1.57123018055043        6.85679088332641
C           68.10053263439374       -0.59460431046026        7.64252189513503
C           68.15181061021735       -0.74511340102658        9.11668128384453
O           67.53909712018543        0.24741722435866        9.77932330728109
O           68.68693264038124       -1.66058574743292        9.68852058240925
C           67.46269654132257        0.48419819873902        7.02945638335320
C           67.44085068654670        0.58134127657359        5.64904049811514
C           69.25271198781033       -0.13916256890143        2.71423226967877
C           70.52352559380995       -0.05635670515375        3.37336056954585
C           71.46465465059268        0.00495690042725        2.40298406697523
C           70.76796449617446       -0.02910242196926        1.15342565289017
N           69.41119411246765       -0.08900016352567        1.35219547938158
N           66.62886193171703       -0.14399434966576        1.37132425241661
C           67.97156517049139        0.34133551613835       -4.93474887915457
C           68.34207799270503       -0.75226728747470       -5.72093800324355
C           68.33948772931440       -0.65173741382680       -7.10009535974250
C           67.97087291239741        0.54502667823515       -7.71733879645793
C           67.99090689646866        0.60590593669087       -9.19867732317587
O           67.62605335378662        1.79890113819582       -9.69184557028479
O           68.30238281489987       -0.31296398291771       -9.91289373011788
C           67.60011898043280        1.63964040092930       -6.93583455334348
C           67.59907308037761        1.53553720998487       -5.55563630166793
H           72.48653365129466       -0.04849239910934       -0.08132072566512
H           72.48755620978335       -0.12310336745647       -2.66504368713947
H           70.58062143747240        0.03355407616236       -4.56646800611949
H           65.36966708692783        0.61989180037620       -4.48228666824235
H           63.49395980824245        0.52880484651971       -2.54857341811088
H           63.53552280026843       -0.49501992011009        2.55374717147733
H           65.44964182690732       -0.68809422947166        4.44354348072775
H           69.16658130803721       -2.23341535728706        4.86886995116831
H           69.20477644022509       -2.40751274087024        7.34384046031511
H           67.61749519288769        0.07545186568947       10.73175928570591
H           66.98700485385142        1.24595346967066        7.63573219892172
H           66.95535022428039        1.42550374742283        5.17250668877986
H           70.66339126717453       -0.04244394885233        4.44196304661693
H           72.53637899276309        0.06899532072223        2.50327628775678
H           68.61955850082391       -1.68476888096862       -5.24282099885138
H           68.62236714695619       -1.49724421619651       -7.71751431286988
H           67.66661472783686        1.75660990273621      -10.66106526153934
H           67.31591415019052        2.57107558224453       -7.41098144261151
H           67.32276816086497        2.38943252862864       -4.94746965510134
C           35.69003354124698        0.02701685642081       -0.02907396586042
C           36.91384007762772        0.03312288256313       -0.03529383108950
C           38.25732797560193        0.03529148453131       -0.04191108735791
C           39.48737703444175        0.03392489054479       -0.04392655533599
C           40.82599373374453        0.02826405028109       -0.04460121441219
C           42.05612928759309        0.01883662955802       -0.04357378880120
C           43.39942651899714        0.01540296702727       -0.04035754675209
C           44.62348896220730        0.01036062721773       -0.03524638802033
C           54.25368843853884        0.02319520959733        0.01902664149167
C           55.47781095236258        0.03125834009939        0.02453475360855
C           56.82114782300509        0.03819839899759        0.02413614393810
C           58.05140140691740        0.03853576017917        0.02423540717193
C           59.39007546514291        0.04939042672295        0.02322297938643
C           60.62025013961841        0.05459831967453        0.02397754499307
C           61.96385668264052        0.05147237004949        0.01832269396777
C           63.18779741674754        0.05047372253315        0.00849487902232
Ni          49.43856052172688        0.01454313931059       -0.01324022390098
C           46.02775726681189        0.01039687526036       -0.02877476245223
C           46.70397164983987       -1.20336322939355       -0.18459326338785
C           46.04319741177585       -2.45121164380572       -0.39712903769635
C           46.99983504286998       -3.41022364395688       -0.35339625267223
C           48.24124812954514       -2.74394636715606       -0.10151006051059
N           48.05335990492069       -1.38162395823128       -0.04995938202192
C           49.44257444020255       -3.39858266532835        0.13995705277970
C           50.64165469665036       -2.72191974607442        0.32626173642817
C           51.88285816567970       -3.35950334138532        0.64404356795358
C           52.83695130585667       -2.39739891835314        0.60909771838454
N           50.82676913688442       -1.36925328087522        0.15435869042849
C           52.17500450320205       -1.17573105170683        0.28022443654071
C           52.84940640929010        0.01934149366398        0.01141887338824
C           52.17506302137616        1.21205726677037       -0.26828308096048
C           52.83834261183841        2.43479090967205       -0.59065877413427
C           51.88200607139505        3.39369287700401       -0.64423404488449
C           50.63809384769742        2.75329867678842       -0.34323271517618
C           49.43495769338783        3.42729822073900       -0.17579798005178
C           49.43310317737865        4.90638161735344       -0.24620280007157
C           50.19398244426049        5.65795614186612        0.65322800873370
C           50.18695762696702        7.03906800962926        0.58872005846915
C           49.42434177139646        7.69430872747837       -0.37994896835211
C           49.45190689120619        9.17652970518274       -0.41103175482799
O           48.68687359900015        9.70730079891294       -1.37669228082026
O           50.09152642291591        9.86071732781142        0.34661960458553
C           48.66562536218758        6.94834153586841       -1.28239444637940
C           48.66910347144555        5.56625800912955       -1.21213728869673
C           48.23299974874586        2.77050141393669        0.05619854784185
C           46.98795589722112        3.43438849640729        0.29540230020573
C           46.03366385591426        2.47280658476532        0.33573572282015
C           46.69946379497578        1.22612863329714        0.13224401183584
N           48.04926505016033        1.40763987084617        0.00771519245854
N           50.82453276897035        1.40167607282289       -0.16388276083592
C           49.44462090535813       -4.87808001842525        0.20201587719137
C           48.66934245456869       -5.54720611830966        1.15288375415501
C           48.67294279737561       -6.92868515682792        1.20887702176934
C           49.44674656193358       -7.66722619549248        0.31165439026260
C           49.41384315390334       -9.14656568288873        0.40875279660844
O           50.18706528890914       -9.76130698025613       -0.49871989874058
O           48.76326624875136       -9.76043852155468        1.21562421756283
C           50.22087536801381       -7.00403100534839       -0.64088047170136
C           50.22069874715919       -5.62101965836193       -0.69124384934305
H           44.98266404641850       -2.56329637257718       -0.55456512069486
H           46.88473732811288       -4.47412877929674       -0.48102664760450
H           51.99908762319905       -4.40749060798024        0.86705608005280
H           53.89645246026910       -2.49172245392994        0.78429774583412
H           53.90017583224520        2.53215819620292       -0.74905129175431
H           51.99857558897101        4.44131278993300       -0.86867974911719
H           50.77723368865779        5.15109028690234        1.41354346582496
H           50.77000261029042        7.62895250531228        1.28742284387533
H           48.75954431462458       10.67445966788197       -1.33021694699995
H           48.07523195436634        7.45277609730953       -2.03810333471231
H           48.08863531452034        4.98611356676152       -1.92058713749823
H           46.86918832740623        4.49847732148885        0.41828181363439
H           44.97175208304319        2.58269030401306        0.48525226162829
H           48.07696758419475       -4.97509631985956        1.85782489809209
H           48.07797722568200       -7.45442276274344        1.94759174310472
H           50.11008888469116      -10.72058129868336       -0.36926159649849
H           50.82032563773788       -7.57344771808580       -1.34127296196027
H           50.81282974386833       -5.10598017122504       -1.43926652734097

          :  Hamiltonian                  GFN1-xTB          :
         :: total energy            -386.464572404957 Eh    ::
         :: gradient norm              0.000949796225 Eh/a0 ::
         :: HOMO-LUMO gap              1.190418248434 eV    ::
         :: SCC energy              -392.345567804315 Eh    ::
         :: repulsion energy           6.058622279644 Eh    ::

    * Orbital Energies and Occupations

         #    Occupation            Energy/Eh            Energy/eV
      -------------------------------------------------------------
         1        2.0000           -0.8345113             -22.7082
       ...           ...                  ...                  ...
       333        2.0000           -0.4080659             -11.1040
       334        2.0000           -0.4080558             -11.1038
       335        2.0000           -0.4076109             -11.0917
       336        2.0000           -0.4074959             -11.0885
       337        2.0000           -0.4072996             -11.0832
       338        2.0000           -0.4072892             -11.0829
       339        2.0000           -0.4062405             -11.0544
       340        2.0000           -0.4062341             -11.0542
       341        2.0000           -0.4061628             -11.0523
       342        2.0000           -0.4061550             -11.0520
       343        2.0000           -0.3992319             -10.8637
       344        2.0000           -0.3981022             -10.8329
       345        2.0000           -0.3947163             -10.7408 (HOMO)
       346                         -0.3509693              -9.5504 (LUMO)
       347                         -0.3453500              -9.3975
       348                         -0.3446493              -9.3784
       349                         -0.3427585              -9.3269
       350                         -0.3410705              -9.2810
       351                         -0.3410455              -9.2803
       352                         -0.3388187              -9.2197
       353                         -0.3388066              -9.2194
       354                         -0.3387832              -9.2188
       355                         -0.3239585              -8.8154
       356                         -0.3168559              -8.6221
       ...                                ...                  ...
       707                          1.5975743              43.4722
      -------------------------------------------------------------
                  HL-Gap            0.0437471 Eh            1.1904 eV

Wiberg/Mayer (AO) data.
largest (>0.10) Wiberg bond orders for each atom

     #   Z sym  total        # sym  WBO       # sym  WBO       # sym  WBO
 ---------------------------------------------------------------------------
     1  28 Ni   3.009 --     7 N    0.664    33 N    0.664    12 N    0.661
                            34 N    0.660
     2   6 C    3.935 --     3 C    1.364    32 C    1.364    44 H    0.970
     3   6 C    3.922 --     2 C    1.364     7 N    1.213     4 C    1.174
     4   6 C    3.960 --     5 C    1.651     3 C    1.174    45 H    0.975
     5   6 C    3.963 --     4 C    1.651     6 C    1.175    46 H    0.972
     6   6 C    3.919 --     8 C    1.323     7 N    1.222     5 C    1.175
     7   7 N    3.403 --     6 C    1.222     3 C    1.213     1 Ni   0.664
     8   6 C    3.939 --     9 C    1.329     6 C    1.323    35 C    1.024
     9   6 C    3.914 --     8 C    1.329    12 N    1.207    10 C    1.183
    10   6 C    3.959 --    11 C    1.638     9 C    1.183    47 H    0.972
    11   6 C    3.961 --    10 C    1.638    13 C    1.190    48 H    0.973
    12   7 N    3.407 --    13 C    1.239     9 C    1.207     1 Ni   0.661
    13   6 C    3.903 --    14 C    1.264    12 N    1.239    11 C    1.190
    14   6 C    3.945 --    13 C    1.264    15 C    1.264   125 C    1.182
    15   6 C    3.903 --    14 C    1.264    34 N    1.238    16 C    1.190
    16   6 C    3.961 --    17 C    1.637    15 C    1.190    49 H    0.973
    17   6 C    3.959 --    16 C    1.637    18 C    1.183    50 H    0.973
    18   6 C    3.914 --    19 C    1.327    34 N    1.207    17 C    1.183
    19   6 C    3.939 --    18 C    1.327    29 C    1.322    20 C    1.028
    20   6 C    3.987 --    28 C    1.387    21 C    1.386    19 C    1.028
    21   6 C    3.987 --    22 C    1.464    20 C    1.386    51 H    0.972
                            27 C    0.103
    22   6 C    3.990 --    21 C    1.464    23 C    1.385    52 H    0.968
                            28 C    0.103
    23   6 C    3.983 --    27 C    1.389    22 C    1.385    24 C    1.009
    24   6 C    3.836 --    26 O    1.690    25 O    1.088    23 C    1.009
    25   8 O    2.097 --    24 C    1.088    53 H    0.838    26 O    0.129
    26   8 O    1.958 --    24 C    1.690    25 O    0.129
    27   6 C    3.991 --    28 C    1.461    23 C    1.389    54 H    0.970
                            21 C    0.103
    28   6 C    3.988 --    27 C    1.461    20 C    1.387    55 H    0.972
                            22 C    0.103
    29   6 C    3.920 --    19 C    1.322    33 N    1.222    30 C    1.176
    30   6 C    3.963 --    31 C    1.650    29 C    1.176    56 H    0.972
    31   6 C    3.960 --    30 C    1.650    32 C    1.174    57 H    0.975
    32   6 C    3.922 --     2 C    1.364    33 N    1.213    31 C    1.174
    33   7 N    3.403 --    29 C    1.222    32 C    1.213     1 Ni   0.664
    34   7 N    3.406 --    15 C    1.238    18 C    1.207     1 Ni   0.660
    35   6 C    3.986 --    43 C    1.389    36 C    1.387     8 C    1.024
    36   6 C    3.988 --    37 C    1.463    35 C    1.387    58 H    0.972
                            42 C    0.103
    37   6 C    3.990 --    36 C    1.463    38 C    1.386    59 H    0.968
                            43 C    0.103
    38   6 C    3.984 --    42 C    1.390    37 C    1.386    39 C    1.009
    39   6 C    3.836 --    41 O    1.690    40 O    1.088    38 C    1.009
    40   8 O    2.097 --    39 C    1.088    60 H    0.838    41 O    0.129
    41   8 O    1.958 --    39 C    1.690    40 O    0.129
    42   6 C    3.991 --    43 C    1.460    38 C    1.390    61 H    0.970
                            36 C    0.103
    43   6 C    3.988 --    42 C    1.460    35 C    1.389    62 H    0.972
                            37 C    0.103
    44   1 H    1.000 --     2 C    0.970
    45   1 H    0.997 --     4 C    0.975
    46   1 H    1.004 --     5 C    0.972
    47   1 H    1.004 --    10 C    0.972
    48   1 H    1.001 --    11 C    0.973
    49   1 H    1.001 --    16 C    0.973
    50   1 H    1.004 --    17 C    0.973
    51   1 H    1.004 --    21 C    0.972
    52   1 H    1.005 --    22 C    0.968
    53   1 H    0.873 --    25 O    0.838
    54   1 H    1.005 --    27 C    0.970
    55   1 H    1.004 --    28 C    0.972
    56   1 H    1.004 --    30 C    0.972
    57   1 H    0.997 --    31 C    0.975
    58   1 H    1.003 --    36 C    0.972
    59   1 H    1.005 --    37 C    0.968
    60   1 H    0.873 --    40 O    0.838
    61   1 H    1.005 --    42 C    0.970
    62   1 H    1.003 --    43 C    0.972
    63  28 Ni   3.009 --    69 N    0.664    95 N    0.664    74 N    0.661
                            96 N    0.661
    64   6 C    3.935 --    65 C    1.364    94 C    1.364   106 H    0.970
    65   6 C    3.922 --    64 C    1.364    69 N    1.213    66 C    1.174
    66   6 C    3.960 --    67 C    1.651    65 C    1.174   107 H    0.975
    67   6 C    3.963 --    66 C    1.651    68 C    1.175   108 H    0.972
    68   6 C    3.919 --    70 C    1.323    69 N    1.222    67 C    1.175
    69   7 N    3.403 --    68 C    1.222    65 C    1.213    63 Ni   0.664
    70   6 C    3.939 --    71 C    1.329    68 C    1.323    97 C    1.024
    71   6 C    3.914 --    70 C    1.329    74 N    1.206    72 C    1.183
    72   6 C    3.959 --    73 C    1.638    71 C    1.183   109 H    0.972
    73   6 C    3.961 --    72 C    1.638    75 C    1.190   110 H    0.973
    74   7 N    3.407 --    75 C    1.239    71 C    1.206    63 Ni   0.661
    75   6 C    3.903 --    76 C    1.264    74 N    1.239    73 C    1.190
    76   6 C    3.945 --    77 C    1.264    75 C    1.264   140 C    1.183
    77   6 C    3.903 --    76 C    1.264    96 N    1.238    78 C    1.191
    78   6 C    3.961 --    79 C    1.637    77 C    1.191   111 H    0.973
    79   6 C    3.959 --    78 C    1.637    80 C    1.183   112 H    0.973
    80   6 C    3.914 --    81 C    1.327    96 N    1.207    79 C    1.183
    81   6 C    3.939 --    80 C    1.327    91 C    1.322    82 C    1.028
    82   6 C    3.987 --    90 C    1.387    83 C    1.386    81 C    1.028
    83   6 C    3.987 --    84 C    1.464    82 C    1.386   113 H    0.972
                            89 C    0.103
    84   6 C    3.990 --    83 C    1.464    85 C    1.385   114 H    0.968
                            90 C    0.103
    85   6 C    3.983 --    89 C    1.389    84 C    1.385    86 C    1.009
    86   6 C    3.836 --    88 O    1.690    87 O    1.088    85 C    1.009
    87   8 O    2.097 --    86 C    1.088   115 H    0.838    88 O    0.129
    88   8 O    1.958 --    86 C    1.690    87 O    0.129
    89   6 C    3.991 --    90 C    1.461    85 C    1.389   116 H    0.970
                            83 C    0.103
    90   6 C    3.988 --    89 C    1.461    82 C    1.387   117 H    0.972
                            84 C    0.103
    91   6 C    3.920 --    81 C    1.322    95 N    1.222    92 C    1.176
    92   6 C    3.963 --    93 C    1.650    91 C    1.176   118 H    0.972
    93   6 C    3.960 --    92 C    1.650    94 C    1.174   119 H    0.975
    94   6 C    3.922 --    64 C    1.364    95 N    1.213    93 C    1.174
    95   7 N    3.403 --    91 C    1.222    94 C    1.213    63 Ni   0.664
    96   7 N    3.406 --    77 C    1.238    80 C    1.207    63 Ni   0.661
    97   6 C    3.986 --   105 C    1.389    98 C    1.387    70 C    1.024
    98   6 C    3.988 --    99 C    1.463    97 C    1.387   120 H    0.972
                           104 C    0.103
    99   6 C    3.990 --    98 C    1.463   100 C    1.386   121 H    0.968
                           105 C    0.103
   100   6 C    3.984 --   104 C    1.389    99 C    1.386   101 C    1.009
   101   6 C    3.836 --   103 O    1.690   102 O    1.088   100 C    1.009
   102   8 O    2.097 --   101 C    1.088   122 H    0.838   103 O    0.129
   103   8 O    1.958 --   101 C    1.690   102 O    0.129
   104   6 C    3.991 --   105 C    1.460   100 C    1.389   123 H    0.970
                            98 C    0.103
   105   6 C    3.988 --   104 C    1.460    97 C    1.389   124 H    0.972
                            99 C    0.103
   106   1 H    1.000 --    64 C    0.970
   107   1 H    0.997 --    66 C    0.975
   108   1 H    1.004 --    67 C    0.972
   109   1 H    1.004 --    72 C    0.972
   110   1 H    1.001 --    73 C    0.973
   111   1 H    1.001 --    78 C    0.973
   112   1 H    1.004 --    79 C    0.973
   113   1 H    1.004 --    83 C    0.972
   114   1 H    1.005 --    84 C    0.968
   115   1 H    0.873 --    87 O    0.838
   116   1 H    1.005 --    89 C    0.970
   117   1 H    1.004 --    90 C    0.972
   118   1 H    1.004 --    92 C    0.972
   119   1 H    0.997 --    93 C    0.975
   120   1 H    1.003 --    98 C    0.972
   121   1 H    1.005 --    99 C    0.968
   122   1 H    0.873 --   102 O    0.838
   123   1 H    1.005 --   104 C    0.970
   124   1 H    1.003 --   105 C    0.972
   125   6 C    3.877 --   126 C    2.448    14 C    1.182   128 C    0.187
   126   6 C    3.938 --   125 C    2.448   127 C    1.338
   127   6 C    3.893 --   128 C    2.343   126 C    1.338   130 C    0.183
   128   6 C    3.927 --   127 C    2.343   129 C    1.364   125 C    0.187
   129   6 C    3.925 --   130 C    2.342   128 C    1.364   132 C    0.187
   130   6 C    3.894 --   129 C    2.342   131 C    1.339   127 C    0.183
   131   6 C    3.935 --   132 C    2.445   130 C    1.339
   132   6 C    3.878 --   131 C    2.445   142 C    1.186   129 C    0.187
   133   6 C    3.878 --   134 C    2.445   154 C    1.186   136 C    0.187
   134   6 C    3.935 --   133 C    2.445   135 C    1.340
   135   6 C    3.894 --   136 C    2.342   134 C    1.340   138 C    0.183
   136   6 C    3.925 --   135 C    2.342   137 C    1.364   133 C    0.187
   137   6 C    3.927 --   138 C    2.343   136 C    1.364   140 C    0.187
   138   6 C    3.893 --   137 C    2.343   139 C    1.338   135 C    0.183
   139   6 C    3.938 --   140 C    2.448   138 C    1.338
   140   6 C    3.877 --   139 C    2.448    76 C    1.183   137 C    0.187
   141  28 Ni   3.010 --   174 N    0.661   147 N    0.661   152 N    0.661
                           173 N    0.661
   142   6 C    3.936 --   143 C    1.261   172 C    1.261   132 C    1.186
   143   6 C    3.903 --   142 C    1.261   147 N    1.237   144 C    1.192
   144   6 C    3.960 --   145 C    1.634   143 C    1.192   184 H    0.973
   145   6 C    3.960 --   144 C    1.634   146 C    1.185   185 H    0.973
   146   6 C    3.913 --   148 C    1.323   147 N    1.206   145 C    1.185
   147   7 N    3.400 --   143 C    1.237   146 C    1.206   141 Ni   0.661
   148   6 C    3.935 --   146 C    1.323   149 C    1.323   175 C    1.032
   149   6 C    3.913 --   148 C    1.323   152 N    1.206   150 C    1.186
   150   6 C    3.960 --   151 C    1.633   149 C    1.186   186 H    0.973
   151   6 C    3.960 --   150 C    1.633   153 C    1.193   187 H    0.973
   152   7 N    3.399 --   153 C    1.237   149 C    1.206   141 Ni   0.661
   153   6 C    3.902 --   154 C    1.261   152 N    1.237   151 C    1.193
   154   6 C    3.936 --   153 C    1.261   155 C    1.261   133 C    1.186
   155   6 C    3.902 --   154 C    1.261   174 N    1.237   156 C    1.193
   156   6 C    3.960 --   157 C    1.634   155 C    1.193   188 H    0.973
   157   6 C    3.960 --   156 C    1.634   158 C    1.185   189 H    0.973
   158   6 C    3.913 --   159 C    1.323   174 N    1.205   157 C    1.185
   159   6 C    3.935 --   158 C    1.323   169 C    1.323   160 C    1.031
   160   6 C    3.987 --   168 C    1.386   161 C    1.384   159 C    1.031
   161   6 C    3.987 --   162 C    1.464   160 C    1.384   190 H    0.972
                           167 C    0.103
   162   6 C    3.990 --   161 C    1.464   163 C    1.385   191 H    0.968
                           168 C    0.103
   163   6 C    3.982 --   167 C    1.389   162 C    1.385   164 C    1.009
   164   6 C    3.836 --   166 O    1.690   165 O    1.089   163 C    1.009
   165   8 O    2.097 --   164 C    1.089   192 H    0.838   166 O    0.129
   166   8 O    1.958 --   164 C    1.690   165 O    0.129
   167   6 C    3.991 --   168 C    1.461   163 C    1.389   193 H    0.969
                           161 C    0.103
   168   6 C    3.987 --   167 C    1.461   160 C    1.386   194 H    0.972
                           162 C    0.103
   169   6 C    3.913 --   159 C    1.323   173 N    1.206   170 C    1.185
   170   6 C    3.960 --   171 C    1.633   169 C    1.185   195 H    0.973
   171   6 C    3.959 --   170 C    1.633   172 C    1.193   196 H    0.973
   172   6 C    3.903 --   142 C    1.261   173 N    1.238   171 C    1.193
   173   7 N    3.399 --   172 C    1.238   169 C    1.206   141 Ni   0.661
   174   7 N    3.399 --   155 C    1.237   158 C    1.205   141 Ni   0.661
   175   6 C    3.987 --   183 C    1.386   176 C    1.384   148 C    1.032
   176   6 C    3.987 --   177 C    1.464   175 C    1.384   197 H    0.972
                           182 C    0.103
   177   6 C    3.990 --   176 C    1.464   178 C    1.385   198 H    0.968
                           183 C    0.103
   178   6 C    3.982 --   182 C    1.389   177 C    1.385   179 C    1.008
   179   6 C    3.836 --   181 O    1.691   180 O    1.089   178 C    1.008
   180   8 O    2.097 --   179 C    1.089   199 H    0.838   181 O    0.129
   181   8 O    1.959 --   179 C    1.691   180 O    0.129
   182   6 C    3.991 --   183 C    1.461   178 C    1.389   200 H    0.969
                           176 C    0.103
   183   6 C    3.987 --   182 C    1.461   175 C    1.386   201 H    0.972
                           177 C    0.103
   184   1 H    1.001 --   144 C    0.973
   185   1 H    1.003 --   145 C    0.973
   186   1 H    1.003 --   150 C    0.973
   187   1 H    1.001 --   151 C    0.973
   188   1 H    1.001 --   156 C    0.973
   189   1 H    1.003 --   157 C    0.973
   190   1 H    1.004 --   161 C    0.972
   191   1 H    1.005 --   162 C    0.968
   192   1 H    0.873 --   165 O    0.838
   193   1 H    1.005 --   167 C    0.969
   194   1 H    1.004 --   168 C    0.972
   195   1 H    1.004 --   170 C    0.973
   196   1 H    1.001 --   171 C    0.973
   197   1 H    1.004 --   176 C    0.972
   198   1 H    1.005 --   177 C    0.968
   199   1 H    0.873 --   180 O    0.838
   200   1 H    1.005 --   182 C    0.969
   201   1 H    1.004 --   183 C    0.972
 ---------------------------------------------------------------------------

           -------------------------------------------------
          | TOTAL ENERGY             -386.464572404957 Eh   |
          | GRADIENT NORM               0.000949796225 Eh/α |
          | HOMO-LUMO GAP               1.190418248434 eV   |
           -------------------------------------------------

 * finished run on 2022/07/30 at 06:46:39.015
