   * xtb version 6.5.1 (b24c23e) compiled by 'conda@728c89f4b128' on 2022-07-12
          program call               : xtb Ni_Ph2OMe_C8_2.xyz --gfn 1 --opt -T 48

   ID    Z sym.   atoms
    1   28 Ni     1, 73
    2    6 C      2-6, 8-11, 13-21, 23-27, 29-33, 36, 37, 39-43, 45, 74-78,
                  80-83, 85-93, 95-99, 101-105, 108, 109, 111-115, 117,
                  145-152
    3    7 N      7, 12, 34, 35, 79, 84, 106, 107
    4    8 O      22, 28, 38, 44, 94, 100, 110, 116
    5    1 H      46-72, 118-144
########################################################################
[WARNING] Please study the warnings concerning your input carefully
-1- prog_main_parseArguments: Unknown option '-T' provided
########################################################################

          :  Hamiltonian                  GFN1-xTB          :
 * total energy  :  -268.8046275 Eh     change        0.1072249E-07 Eh
 * total energy  :  -269.2974759 Eh     change       -0.4928484E+00 Eh
 * total energy  :  -269.4032263 Eh     change       -0.1057504E+00 Eh
 * total energy  :  -269.4499471 Eh     change       -0.4672079E-01 Eh
 * total energy  :  -269.4688175 Eh     change       -0.1887042E-01 Eh
 * total energy  :  -269.4800615 Eh     change       -0.1124404E-01 Eh
 * total energy  :  -269.4863826 Eh     change       -0.6321099E-02 Eh
 * total energy  :  -269.4907082 Eh     change       -0.4325597E-02 Eh
 * total energy  :  -269.4931003 Eh     change       -0.2392062E-02 Eh
 * total energy  :  -269.4952525 Eh     change       -0.2152184E-02 Eh
 * total energy  :  -269.5010913 Eh     change       -0.1377069E-04 Eh
 * total energy  :  -269.5011035 Eh     change       -0.1219823E-04 Eh
 * total energy  :  -269.5011152 Eh     change       -0.1166202E-04 Eh
 * total energy  :  -269.5011312 Eh     change       -0.1604337E-04 Eh
 * total energy  :  -269.5011495 Eh     change       -0.1825862E-04 Eh
 * total energy  :  -269.5011653 Eh     change       -0.1578155E-04 Eh
 * total energy  :  -269.5011657 Eh     change       -0.3876690E-06 Eh
 * total energy  :  -269.5011718 Eh     change       -0.6116878E-05 Eh
 * total energy  :  -269.5011752 Eh     change       -0.3369789E-05 Eh
   *** GEOMETRY OPTIMIZATION CONVERGED AFTER 46 ITERATIONS ***

 final structure:
================
152
 xtb: 6.5.1 (b24c23e)
Ni          11.89389579480605        0.00505808699063        0.03473759168527
C            8.49552154722046        0.09265152010545        0.02074266425386
C            9.15893434572559        0.88789650723844        0.93180388921461
C            8.49231574604033        1.74103150913473        1.86869819322972
C            9.45932933713701        2.40146592673299        2.54746634783731
C           10.71434647482686        1.94982425176448        2.02401450829739
N           10.52082705315520        1.01017883249483        1.04286727690454
C           11.94097304640267        2.43652111889313        2.44656226299876
C           13.14767405092292        1.98209911325855        1.94273647982753
C           14.41853151569486        2.48517996897535        2.36674614653697
C           15.36054625853915        1.77918166488384        1.69735540015520
N           13.30939885014878        0.98340575829207        1.00838609213537
C           14.66200491782596        0.84897287716935        0.86689335916033
C           15.31209250122972       -0.08687151828729        0.05711089214404
C           14.62163719832973       -0.98598779014452       -0.76040698883031
C           15.27944332603714       -1.95793655976841       -1.57522142049222
C           14.31046971876799       -2.60719217270272       -2.26307545088616
C           13.06317586438475       -2.02549547589589       -1.87024148281829
C           11.83977100929421       -2.40723061580421       -2.39945949632084
C           11.81902876600789       -3.44906176318382       -3.46344940590428
C           12.32908217683742       -3.16724309717285       -4.73795167461593
O           12.81425368959309       -1.91078331759595       -4.91816380715393
C           13.36928963442185       -1.52806004226490       -6.16020646844246
C           12.30996110970221       -4.14091186112096       -5.73601935166874
C           11.78592353356548       -5.39338093231254       -5.45405803583201
C           11.27725545632819       -5.69560436666916       -4.19997651586982
C           11.29100523123046       -4.72053431043254       -3.20308157771547
O           10.82151612939663       -4.92211702268659       -1.94360142154625
C           10.25781884514768       -6.16615572593944       -1.58017456712334
C           10.63502607936898       -1.85994260865335       -1.98189971780165
C            9.36245352646341       -2.22649276365568       -2.53004105816734
C            8.42535441513489       -1.52981506301432       -1.84626141042669
C            9.12693741348049       -0.73091188587775       -0.88772195199095
N           10.48175065609592       -0.92544371712130       -0.98848127979951
N           13.26559280926620       -1.04242331585626       -0.92724418040003
C           11.96284790872345        3.50215668424550        3.49048190104994
C           12.10235185772697        3.16440071931009        4.84149318629376
O           12.20687457566100        1.83694266524803        5.11144496749512
C           12.34851598392525        1.38779642198279        6.44402814279854
C           12.12473701383836        4.16238051585175        5.81573168183212
C           12.00903980590593        5.48963952179060        5.43079452820056
C           11.87027234338152        5.84573975830354        4.09765105819053
C           11.84637455180690        4.84779304482745        3.12355784797843
O           11.71648153074951        5.08829688651561        1.79255796654008
C           11.60798641292833        6.41320426353684        1.31295169702983
H            7.41194668380242        0.12054168236790        0.01466076232979
H            7.42123352103158        1.81278867333783        1.97400069810334
H            9.35127750171433        3.13274906844581        3.33249108703062
H           14.55593427605423        3.27543345185816        3.08711623649096
H           16.43396791896060        1.86524191040752        1.75060650566955
H           16.34644045504512       -2.10991817478794       -1.60484033839412
H           14.41779370152724       -3.40802482331856       -2.97619891346526
H           12.62711901435734       -1.58181898405743       -6.96586083903039
H           13.69458322404814       -0.49294077516973       -6.04109745396407
H           14.23418931747359       -2.14951612121708       -6.42188417642018
H           12.69753673296811       -3.93212983918773       -6.72414491041075
H           11.77347225500803       -6.15135977957859       -6.22956410314919
H           10.87656738577792       -6.68189353042666       -4.00787264848377
H            9.94914436941139       -6.06673051551975       -0.53789192383111
H            9.38072193250020       -6.40429889014597       -2.19415480134301
H           10.98979797470674       -6.97868661931546       -1.66307558543381
H            9.22032112764453       -2.93157974704488       -3.33288277733762
H            7.35329297597795       -1.54010156862651       -1.96476739441099
H           12.40962716230653        0.29918761821431        6.39292499420912
H           11.48461348718425        1.67157036404392        7.05732751589851
H           13.26390854986780        1.77877689316957        6.90452305672714
H           12.23139620966514        3.91544415287152        6.86354058374030
H           12.02746758124424        6.26555425559896        6.18828512267114
H           11.78248506109613        6.88963514198266        3.82780444379580
H           12.49609920129087        7.00540712972861        1.56486930025706
H           11.52383095922682        6.33740866791443        0.22729432737458
H           10.71533934908690        6.91224300656868        1.70932760827082
Ni          30.47312606912186       -0.03407180692830       -0.01280397790584
C           33.87161297587697       -0.00906527085031       -0.09413846266971
C           33.20886956993483       -0.79846971152522       -1.01075377385255
C           33.87614420213907       -1.60495263293987       -1.98764069098700
C           32.90964075451038       -2.18308799806308       -2.73842018207680
C           31.65428104958557       -1.72883915508045       -2.21806282456893
N           31.84704851093585       -0.89086497751115       -1.14863517563382
C           30.42803718382905       -2.07719676165940       -2.76112164024997
C           29.22099999026748       -1.64241011705602       -2.24099034520307
C           27.95059678114329       -1.99042029830849       -2.80028771275149
C           27.00795051642526       -1.42860201176515       -2.00676474493239
N           29.05841094764135       -0.85969348510840       -1.11960963194660
C           27.70567517279323       -0.73948789016637       -0.96690255844627
C           27.05490417602433       -0.07179908647101        0.07470302963436
C           27.74476531777449        0.60975429026136        1.08118085951500
C           27.08618329104312        1.27807821986785        2.15863452848958
C           28.05456773571106        1.86706876024538        2.89951707142204
C           29.30229137509178        1.56146963757470        2.26837240779841
C           30.52535856585847        2.03128830341149        2.72202959776692
C           30.54607260282828        2.93659538144464        3.90436333328162
C           30.03680698750359        4.23849904613993        3.80627546635611
O           29.55064175012442        4.59510586563054        2.58847358134333
C           28.99693460840311        5.87947079858477        2.38592965666063
C           30.05788640191933        5.08881219984339        4.91128649217749
C           30.58299685870574        4.63217301656245        6.11067653147544
C           31.09059470186926        3.34748919172624        6.23195936455253
C           31.07495251729594        2.49854810410430        5.12570396717888
O           31.54355782275261        1.22287939578755        5.14666323831487
C           32.10866538569792        0.68709752469156        6.32612826883561
C           31.73046307636996        1.69598636731848        2.12148597531278
C           33.00266734194744        2.18721161486589        2.56248947607246
C           33.94033267225131        1.60952110971480        1.77627857066231
C           33.23946675115374        0.77353986635608        0.84935499384279
N           31.88453909469900        0.84534590625371        1.05551479345868
N           29.10064597656103        0.76792809013346        1.16098248951598
C           30.40617470867740       -2.95900120428234       -3.96437195925106
C           30.26704785044446       -4.34433360843558       -3.82204449639761
O           30.16459160919921       -4.80039492330999       -2.54633454045265
C           30.02296066843142       -6.18327008359078       -2.29108677657982
C           30.24261771041671       -5.16661168654032       -4.94848877299518
C           30.35591691876791       -4.59665471698088       -6.20765402657222
C           30.49449613115884       -3.22640510084517       -6.37065861392813
C           30.52036749878289       -2.40426721642477       -5.24427662496434
O           30.64995804414367       -1.05257154128472       -5.29303920870470
C           30.75613566099521       -0.38910319217120       -6.53630428416559
H           34.95520617588065        0.00113113236207       -0.12020697637303
H           34.94729602130298       -1.69899486943299       -2.07285989386993
H           33.01820804302189       -2.85635149188769       -3.57366581506613
H           27.81386226426509       -2.59075834287640       -3.68526612473945
H           25.93462928540175       -1.46939159225517       -2.10026016022180
H           26.01910318468495        1.28515543164205        2.31289615989290
H           27.94671743308342        2.45910449960230        3.79354630170918
H           29.74054947380588        6.66843414247664        2.55135536973388
H           28.66959755298597        5.90806838413965        1.34501737489919
H           28.13358446612821        6.05206529693826        3.03980945690090
H           29.67127548914857        6.09692978698391        4.84478141075618
H           30.59723705488712        5.29276742947862        6.97061944114253
H           31.49220339787210        3.01755854821287        7.18067921177910
H           32.41585138589149       -0.33108673452401        6.08025992559645
H           32.98689620279288        1.26048163643466        6.64693192155365
H           31.37801903301067        0.65542395011213        7.14346308668610
H           33.14431495179933        2.88211748370421        3.37424130543042
H           35.01232036623443        1.72601176922951        1.80361408648595
H           29.96436223812616       -6.28759442831141       -1.20614648146025
H           30.88572542910399       -6.75034059660392       -2.66128667979548
H           29.10631291757496       -6.58300526564876       -2.74146152951595
H           30.13589848066657       -6.23888197594714       -4.85304399541511
H           30.33561117474087       -5.23597993706504       -7.08345742365240
H           30.58027681816272       -2.81074105304783       -7.36570375313860
H           29.86661724838513       -0.55363360536878       -7.15646076603448
H           30.84127856854926        0.67462790378835       -6.30673039685515
H           31.64745447546224       -0.71071876777524       -7.08864340979663
C           16.71647351193699       -0.11695018019778        0.06302382826357
C           17.94066298014295       -0.13133104051164        0.07432233192780
C           19.28385947628780       -0.13771253011406        0.08364013381168
C           20.51430550526291       -0.13488361880119        0.09349415640084
C           21.85275996367378       -0.12357220330808        0.10083536023395
C           23.08316073058262       -0.11642037128707        0.10982214351873
C           24.42627169715582       -0.09806753692918        0.10665309216398
C           25.65050052306045       -0.08279780571137        0.10376244353230

          :  Hamiltonian                  GFN1-xTB          :
         :: total energy            -269.501175159476 Eh    ::
         :: gradient norm              0.000837011011 Eh/a0 ::
         :: HOMO-LUMO gap              1.211321602103 eV    ::
         :: SCC energy              -273.350483802715 Eh    ::
         :: repulsion energy           3.980538218002 Eh    ::

    * Orbital Energies and Occupations

         #    Occupation            Energy/Eh            Energy/eV
      -------------------------------------------------------------
         1        2.0000           -0.8063845             -21.9428
       ...           ...                  ...                  ...
       229        2.0000           -0.3959713             -10.7749
       230        2.0000           -0.3839154             -10.4469
       231        2.0000           -0.3839135             -10.4468
       232        2.0000           -0.3834524             -10.4343
       233        2.0000           -0.3834503             -10.4342
       234        2.0000           -0.3827334             -10.4147
       235        2.0000           -0.3827312             -10.4146
       236        2.0000           -0.3817225             -10.3872
       237        2.0000           -0.3817202             -10.3871
       238        2.0000           -0.3816914             -10.3864
       239        2.0000           -0.3816886             -10.3863
       240        2.0000           -0.3790366             -10.3141
       241        2.0000           -0.3704855             -10.0814 (HOMO)
       242                         -0.3259702              -8.8701 (LUMO)
       243                         -0.3160426              -8.6000
       244                         -0.3145285              -8.5588
       245                         -0.3145232              -8.5586
       246                         -0.3138225              -8.5395
       247                         -0.3138160              -8.5394
       248                         -0.2884710              -7.8497
       249                         -0.2883886              -7.8475
       250                         -0.2781827              -7.5697
       251                         -0.2619883              -7.1291
       252                         -0.2548847              -6.9358
       ...                                ...                  ...
       510                          1.6172653              44.0080
      -------------------------------------------------------------
                  HL-Gap            0.0445152 Eh            1.2113 eV

Wiberg/Mayer (AO) data.
largest (>0.10) Wiberg bond orders for each atom

     #   Z sym  total        # sym  WBO       # sym  WBO       # sym  WBO
 ---------------------------------------------------------------------------
     1  28 Ni   3.011 --    34 N    0.665     7 N    0.664    35 N    0.662
                            12 N    0.661
     2   6 C    3.934 --    33 C    1.364     3 C    1.363    46 H    0.971
     3   6 C    3.925 --     2 C    1.363     7 N    1.217     4 C    1.174
     4   6 C    3.960 --     5 C    1.650     3 C    1.174    47 H    0.975
     5   6 C    3.963 --     4 C    1.650     6 C    1.177    48 H    0.974
     6   6 C    3.918 --     8 C    1.330     7 N    1.219     5 C    1.177
     7   7 N    3.403 --     6 C    1.219     3 C    1.217     1 Ni   0.664
     8   6 C    3.939 --     9 C    1.341     6 C    1.330    36 C    1.002
     9   6 C    3.914 --     8 C    1.341    12 N    1.201    10 C    1.182
    10   6 C    3.959 --    11 C    1.639     9 C    1.182    49 H    0.974
    11   6 C    3.961 --    10 C    1.639    13 C    1.189    50 H    0.973
    12   7 N    3.407 --    13 C    1.244     9 C    1.201     1 Ni   0.661
    13   6 C    3.905 --    14 C    1.260    12 N    1.244    11 C    1.189
    14   6 C    3.944 --    15 C    1.262    13 C    1.260   145 C    1.186
    15   6 C    3.905 --    14 C    1.262    35 N    1.242    16 C    1.189
    16   6 C    3.961 --    17 C    1.639    15 C    1.189    51 H    0.973
    17   6 C    3.959 --    16 C    1.639    18 C    1.183    52 H    0.974
    18   6 C    3.914 --    19 C    1.336    35 N    1.203    17 C    1.183
    19   6 C    3.940 --    18 C    1.336    30 C    1.326    20 C    1.014
    20   6 C    3.977 --    27 C    1.343    21 C    1.342    19 C    1.014
                            25 C    0.101
    21   6 C    3.904 --    24 C    1.362    20 C    1.342    22 O    1.032
    22   8 O    2.145 --    21 C    1.032    23 C    0.935
    23   6 C    3.907 --    54 H    0.983    55 H    0.980    53 H    0.980
                            22 O    0.935
    24   6 C    3.983 --    25 C    1.442    21 C    1.362    56 H    0.969
    25   6 C    3.993 --    26 C    1.442    24 C    1.442    57 H    0.974
                            20 C    0.101
    26   6 C    3.983 --    25 C    1.442    27 C    1.362    58 H    0.969
    27   6 C    3.903 --    26 C    1.362    20 C    1.343    28 O    1.031
    28   8 O    2.145 --    27 C    1.031    29 C    0.935
    29   6 C    3.907 --    59 H    0.983    60 H    0.980    61 H    0.980
                            28 O    0.935
    30   6 C    3.918 --    19 C    1.326    34 N    1.220    31 C    1.177
    31   6 C    3.963 --    32 C    1.650    30 C    1.177    62 H    0.974
    32   6 C    3.960 --    31 C    1.650    33 C    1.174    63 H    0.975
    33   6 C    3.925 --     2 C    1.364    34 N    1.215    32 C    1.174
    34   7 N    3.404 --    30 C    1.220    33 C    1.215     1 Ni   0.665
    35   7 N    3.408 --    15 C    1.242    18 C    1.203     1 Ni   0.662
    36   6 C    3.977 --    37 C    1.347    43 C    1.347     8 C    1.002
                            41 C    0.102
    37   6 C    3.905 --    40 C    1.360    36 C    1.347    38 O    1.033
    38   8 O    2.145 --    37 C    1.033    39 C    0.935
    39   6 C    3.907 --    64 H    0.983    65 H    0.980    66 H    0.980
                            38 O    0.935
    40   6 C    3.983 --    41 C    1.443    37 C    1.360    67 H    0.969
    41   6 C    3.995 --    40 C    1.443    42 C    1.443    68 H    0.974
                            36 C    0.102
    42   6 C    3.983 --    41 C    1.443    43 C    1.360    69 H    0.969
    43   6 C    3.905 --    42 C    1.360    36 C    1.347    44 O    1.032
    44   8 O    2.145 --    43 C    1.032    45 C    0.935
    45   6 C    3.908 --    71 H    0.983    72 H    0.980    70 H    0.980
                            44 O    0.935
    46   1 H    1.001 --     2 C    0.971
    47   1 H    0.998 --     4 C    0.975
    48   1 H    1.002 --     5 C    0.974
    49   1 H    1.002 --    10 C    0.974
    50   1 H    1.002 --    11 C    0.973
    51   1 H    1.002 --    16 C    0.973
    52   1 H    1.002 --    17 C    0.974
    53   1 H    1.009 --    23 C    0.980
    54   1 H    1.015 --    23 C    0.983
    55   1 H    1.009 --    23 C    0.980
    56   1 H    1.000 --    24 C    0.969
    57   1 H    1.003 --    25 C    0.974
    58   1 H    1.000 --    26 C    0.969
    59   1 H    1.015 --    29 C    0.983
    60   1 H    1.009 --    29 C    0.980
    61   1 H    1.009 --    29 C    0.980
    62   1 H    1.002 --    31 C    0.974
    63   1 H    0.998 --    32 C    0.975
    64   1 H    1.015 --    39 C    0.983
    65   1 H    1.009 --    39 C    0.980
    66   1 H    1.009 --    39 C    0.980
    67   1 H    0.999 --    40 C    0.969
    68   1 H    1.003 --    41 C    0.974
    69   1 H    0.999 --    42 C    0.969
    70   1 H    1.009 --    45 C    0.980
    71   1 H    1.015 --    45 C    0.983
    72   1 H    1.009 --    45 C    0.980
    73  28 Ni   3.011 --   106 N    0.665    79 N    0.664   107 N    0.662
                            84 N    0.661
    74   6 C    3.934 --   105 C    1.364    75 C    1.363   118 H    0.971
    75   6 C    3.925 --    74 C    1.363    79 N    1.217    76 C    1.174
    76   6 C    3.960 --    77 C    1.650    75 C    1.174   119 H    0.975
    77   6 C    3.963 --    76 C    1.650    78 C    1.177   120 H    0.974
    78   6 C    3.918 --    80 C    1.330    79 N    1.219    77 C    1.177
    79   7 N    3.403 --    78 C    1.219    75 C    1.217    73 Ni   0.664
    80   6 C    3.939 --    81 C    1.341    78 C    1.330   108 C    1.002
    81   6 C    3.914 --    80 C    1.341    84 N    1.201    82 C    1.182
    82   6 C    3.959 --    83 C    1.639    81 C    1.182   121 H    0.974
    83   6 C    3.961 --    82 C    1.639    85 C    1.189   122 H    0.973
    84   7 N    3.407 --    85 C    1.244    81 C    1.201    73 Ni   0.661
    85   6 C    3.904 --    86 C    1.260    84 N    1.244    83 C    1.189
    86   6 C    3.944 --    87 C    1.262    85 C    1.260   152 C    1.186
    87   6 C    3.905 --    86 C    1.262   107 N    1.242    88 C    1.189
    88   6 C    3.961 --    89 C    1.639    87 C    1.189   123 H    0.973
    89   6 C    3.959 --    88 C    1.639    90 C    1.183   124 H    0.974
    90   6 C    3.914 --    91 C    1.336   107 N    1.203    89 C    1.183
    91   6 C    3.940 --    90 C    1.336   102 C    1.326    92 C    1.014
    92   6 C    3.977 --    99 C    1.343    93 C    1.342    91 C    1.014
                            97 C    0.101
    93   6 C    3.904 --    96 C    1.362    92 C    1.342    94 O    1.032
    94   8 O    2.145 --    93 C    1.032    95 C    0.935
    95   6 C    3.907 --   126 H    0.983   127 H    0.980   125 H    0.980
                            94 O    0.935
    96   6 C    3.983 --    97 C    1.442    93 C    1.362   128 H    0.969
    97   6 C    3.993 --    98 C    1.442    96 C    1.442   129 H    0.974
                            92 C    0.101
    98   6 C    3.983 --    97 C    1.442    99 C    1.362   130 H    0.969
    99   6 C    3.903 --    98 C    1.362    92 C    1.343   100 O    1.031
   100   8 O    2.145 --    99 C    1.031   101 C    0.935
   101   6 C    3.907 --   131 H    0.983   132 H    0.980   133 H    0.980
                           100 O    0.935
   102   6 C    3.918 --    91 C    1.326   106 N    1.220   103 C    1.177
   103   6 C    3.963 --   104 C    1.650   102 C    1.177   134 H    0.974
   104   6 C    3.960 --   103 C    1.650   105 C    1.174   135 H    0.975
   105   6 C    3.925 --    74 C    1.364   106 N    1.215   104 C    1.174
   106   7 N    3.404 --   102 C    1.220   105 C    1.215    73 Ni   0.665
   107   7 N    3.408 --    87 C    1.242    90 C    1.203    73 Ni   0.662
   108   6 C    3.977 --   109 C    1.347   115 C    1.347    80 C    1.002
                           113 C    0.102
   109   6 C    3.905 --   112 C    1.360   108 C    1.347   110 O    1.033
   110   8 O    2.145 --   109 C    1.033   111 C    0.935
   111   6 C    3.907 --   136 H    0.983   137 H    0.980   138 H    0.980
                           110 O    0.935
   112   6 C    3.983 --   113 C    1.443   109 C    1.360   139 H    0.969
   113   6 C    3.995 --   112 C    1.443   114 C    1.443   140 H    0.974
                           108 C    0.102
   114   6 C    3.983 --   113 C    1.443   115 C    1.360   141 H    0.969
   115   6 C    3.905 --   114 C    1.360   108 C    1.347   116 O    1.032
   116   8 O    2.145 --   115 C    1.032   117 C    0.935
   117   6 C    3.908 --   143 H    0.983   144 H    0.980   142 H    0.980
                           116 O    0.935
   118   1 H    1.001 --    74 C    0.971
   119   1 H    0.998 --    76 C    0.975
   120   1 H    1.002 --    77 C    0.974
   121   1 H    1.002 --    82 C    0.974
   122   1 H    1.002 --    83 C    0.973
   123   1 H    1.002 --    88 C    0.973
   124   1 H    1.002 --    89 C    0.974
   125   1 H    1.009 --    95 C    0.980
   126   1 H    1.015 --    95 C    0.983
   127   1 H    1.009 --    95 C    0.980
   128   1 H    1.000 --    96 C    0.969
   129   1 H    1.003 --    97 C    0.974
   130   1 H    1.000 --    98 C    0.969
   131   1 H    1.015 --   101 C    0.983
   132   1 H    1.009 --   101 C    0.980
   133   1 H    1.009 --   101 C    0.980
   134   1 H    1.002 --   103 C    0.974
   135   1 H    0.998 --   104 C    0.975
   136   1 H    1.015 --   111 C    0.983
   137   1 H    1.009 --   111 C    0.980
   138   1 H    1.009 --   111 C    0.980
   139   1 H    0.999 --   112 C    0.969
   140   1 H    1.003 --   113 C    0.974
   141   1 H    0.999 --   114 C    0.969
   142   1 H    1.009 --   117 C    0.980
   143   1 H    1.015 --   117 C    0.983
   144   1 H    1.009 --   117 C    0.980
   145   6 C    3.878 --   146 C    2.444    14 C    1.186   148 C    0.187
   146   6 C    3.938 --   145 C    2.444   147 C    1.341
   147   6 C    3.894 --   148 C    2.340   146 C    1.341   150 C    0.183
   148   6 C    3.928 --   147 C    2.340   149 C    1.366   145 C    0.187
   149   6 C    3.928 --   150 C    2.340   148 C    1.366   152 C    0.187
   150   6 C    3.894 --   149 C    2.340   151 C    1.341   147 C    0.183
   151   6 C    3.938 --   152 C    2.444   150 C    1.341
   152   6 C    3.877 --   151 C    2.444    86 C    1.186   149 C    0.187
 ---------------------------------------------------------------------------

           -------------------------------------------------
          | TOTAL ENERGY             -269.501175159476 Eh   |
          | GRADIENT NORM               0.000837011011 Eh/α |
          | HOMO-LUMO GAP               1.211321602103 eV   |
           -------------------------------------------------

 * finished run on 2022/07/30 at 10:32:48.496
