   * xtb version 6.5.1 (b24c23e) compiled by 'conda@728c89f4b128' on 2022-07-12
          program call               : xtb Co_PhNO2_C4_2.xyz --gfn 1 --opt -T 48

   ID    Z sym.   atoms
    1   27 Co     1, 61
    2    6 C      2-6, 8-12, 16-20, 22-27, 29-33, 37-42, 62-66, 68-72, 76-80,
                  82-87, 89-93, 97-102, 121-124
    3    7 N      7, 13, 21, 28, 34, 43, 67, 73, 81, 88, 94, 103
    4    8 O      14, 15, 35, 36, 74, 75, 95, 96
    5    1 H      44-60, 104-120
########################################################################
[WARNING] Please study the warnings concerning your input carefully
-1- prog_main_parseArguments: Unknown option '-T' provided
########################################################################

          :  Hamiltonian                  GFN1-xTB          :
 * total energy  :  -243.8092929 Eh     change        0.8396910E-09 Eh
 * total energy  :  -244.2438366 Eh     change       -0.4345437E+00 Eh
 * total energy  :  -244.3677637 Eh     change       -0.1239271E+00 Eh
 * total energy  :  -244.4054353 Eh     change       -0.3767155E-01 Eh
 * total energy  :  -244.4232206 Eh     change       -0.1778537E-01 Eh
 * total energy  :  -244.4321149 Eh     change       -0.8894218E-02 Eh
 * total energy  :  -244.4357583 Eh     change       -0.3643473E-02 Eh
 * total energy  :  -244.4375666 Eh     change       -0.1808275E-02 Eh
 * total energy  :  -244.4390140 Eh     change       -0.1447409E-02 Eh
 * total energy  :  -244.4395930 Eh     change       -0.5789805E-03 Eh
 * total energy  :  -244.4433262 Eh     change       -0.1414772E-04 Eh
 * total energy  :  -244.4433362 Eh     change       -0.9945959E-05 Eh
 * total energy  :  -244.4433484 Eh     change       -0.1218683E-04 Eh
 * total energy  :  -244.4433550 Eh     change       -0.6620636E-05 Eh
 * total energy  :  -244.4433642 Eh     change       -0.9249412E-05 Eh
 * total energy  :  -244.4433704 Eh     change       -0.6174949E-05 Eh
 * total energy  :  -244.4433768 Eh     change       -0.6431949E-05 Eh
 * total energy  :  -244.4433766 Eh     change        0.2475027E-06 Eh
 * total energy  :  -244.4433809 Eh     change       -0.4278200E-05 Eh
   *** GEOMETRY OPTIMIZATION CONVERGED AFTER 60 ITERATIONS ***

 final structure:
================
124
 xtb: 6.5.1 (b24c23e)
Co          15.96964317764760       -0.05532054230484       -0.02390060754357
C           12.59941138665563       -0.05556376310734       -0.15984243172998
C           13.25319767512659       -1.26456757557393       -0.05467284101414
C           12.58950085013335       -2.52879028543408        0.04496161184531
C           13.54666842682769       -3.47962440965520       -0.06510280401681
C           14.79255746391301       -2.79364754383018       -0.24873918107779
N           14.60960473226623       -1.43692298261974       -0.17246467846820
C           15.98847880984784       -3.41621873041205       -0.58182266779656
C           16.00003697727002       -4.87674705624978       -0.81521294932413
C           16.81954377641123       -5.70707787744976       -0.04426046631974
C           16.83675320473598       -7.07309270739466       -0.25878754451310
C           16.03178492347131       -7.61338131829242       -1.25762887274864
N           16.04958028515111       -9.04717504863744       -1.49047109571916
O           15.34150224384977       -9.47873400463639       -2.36363797597934
O           16.77151001272519       -9.71549884746985       -0.79613353258892
C           15.21078039801037       -6.80422459658325       -2.03776174610506
C           15.19611912270113       -5.44006061583199       -1.81090589566875
C           17.17394375112292       -2.70636713596490       -0.71117010714442
C           18.41808197378426       -3.28319051125793       -1.12387617794684
C           19.36461714454328       -2.32799938423017       -0.95965237989180
N           17.34777763191088       -1.38586539089928       -0.36782824181755
C           18.69531473439461       -1.17055065435952       -0.45642626659201
C           19.36209236338697       -0.03699358490637        0.01274252205352
C           18.67120563169979        1.08451881882271        0.47744307066168
C           19.31137682012091        2.23478774376128        1.03153775092332
C           18.34882853844027        3.17446343435131        1.19422054313494
C           17.12578810395662        2.59783423277150        0.72240950337368
N           17.32602954753850        1.28966123252784        0.34729540083356
C           15.94223157871496        3.30242992920215        0.55368931033531
C           15.92602265174079        4.75605952852323        0.82533572558452
C           15.05396465920525        5.28474142170037        1.78215778002557
C           15.03678651332387        6.64253386031548        2.04376763120595
C           15.89537409251752        7.48069156297438        1.33819460164088
N           15.88003324305819        8.90799394325493        1.60770774968776
O           15.10630579091942        9.31000934701185        2.43827619970803
O           16.64148085512565        9.60113138035264        0.98349831224165
C           16.76839453987347        6.97533001273126        0.37907082432935
C           16.78163912839495        5.61528609397797        0.12889095674141
C           14.77227167944451        2.68205761414834        0.13414835097510
C           13.53978463977057        3.36917038416764       -0.12199720949819
C           12.59787684949378        2.41924930477212       -0.32775077305933
C           13.25712494079734        1.15442970611759       -0.20640611203332
N           14.60209131811565        1.32754105365080        0.00895904430457
H           11.51675059914383       -0.05617293418415       -0.20065572032775
H           11.52642151705775       -2.65161326793920        0.17646741918311
H           13.43321406868604       -4.55097483456204       -0.03018581396099
H           17.43347148235033       -5.27490183868041        0.73733956919576
H           17.46351441343460       -7.72530303558002        0.33737279503510
H           14.59704739873423       -7.24930979522520       -2.81171387193333
H           14.57101282002608       -4.79790061986078       -2.42030577761406
H           18.54039027151569       -4.28928748878442       -1.49043253328089
H           20.42424732641182       -2.38845781404220       -1.14839004575120
H           20.36348890098156        2.30063864054251        1.25697100941160
H           18.44776213408794        4.16974035720108        1.59568481967392
H           14.39958885728571        4.61999194147454        2.33385447883956
H           14.36943815773263        7.06051546860545        2.78781917796070
H           17.42317133239754        7.64969075347409       -0.15964271733524
H           17.44751374265680        5.21128393668234       -0.62471429052654
H           13.42440079215471        4.44074123341127       -0.13891026329292
H           11.54672668124513        2.54266155382382       -0.53355086004874
Co          29.35432604222229        0.05973152483242        0.00334328134370
C           32.72298363401560        0.11283962778811       -0.12927040865713
C           32.06925597649226        1.18982915716575        0.43058580022988
C           32.73131134770300        2.31985728953673        1.00796976599045
C           31.77374563939106        3.24178063809351        1.26455784077841
C           30.52940039135864        2.67931103016760        0.82668307392213
N           30.71331236705496        1.39538163504361        0.38220146765503
C           29.33538624240274        3.38401479332638        0.74250343484540
C           29.32403557587261        4.82525347666397        1.07383345529256
C           28.49083707361732        5.30926834165544        2.08727413535948
C           28.47359099451730        6.65620980905991        2.39987887109516
C           29.29239491455368        7.52857927238890        1.68848336278237
N           29.27383596361097        8.94540478247399        2.00867574706170
O           29.99616228630926        9.66978332056704        1.37345342149604
O           28.53718263509572        9.30785013297145        2.88951874144534
C           30.12769919316450        7.06765132346792        0.67500873364342
C           30.14216444164617        5.71783694205377        0.37444379748238
C           28.15199338137917        2.77630451788658        0.34666117099758
C           26.90968010635441        3.46649519725085        0.16971678782086
C           25.96290766956816        2.51950072047900       -0.03604776971870
N           27.97744864721529        1.42308681494215        0.17339833017762
C           26.63029953739736        1.25711179374153        0.00652691178625
C           25.96320385471588        0.03051782586215        0.02476553642216
C           26.65461839131747       -1.18322588449144        0.04366864617415
C           26.01639571425195       -2.45753977602924        0.13640934440205
C           26.97906299571995       -3.38979927164250       -0.06486048015563
C           28.20015501242495       -2.67834601403572       -0.29648688169462
N           27.99895385302660       -1.32458934022302       -0.15898933215539
C           29.38180277557192       -3.26713065864474       -0.72478586351206
C           29.39801293041319       -4.71640856818869       -1.01753067574612
C           30.28299326323733       -5.56261002283935       -0.34189338242684
C           30.30057209376836       -6.91936178192965       -0.60870990747884
C           29.42886984694852       -7.43473642891750       -1.56369231620389
N           29.44502822078260       -8.85882122547006       -1.84979863835938
O           30.23211610160165       -9.53988662465051       -1.24428232874935
O           28.67061981134605       -9.27029396824990       -2.67489706125186
C           28.54231511556572       -6.60958121111367       -2.24965237672337
C           28.52926013145522       -5.25492062989126       -1.97189917759610
C           30.54955670161169       -2.53253659414609       -0.88900934202414
C           31.78002473558329       -3.06967302996824       -1.39330660182996
C           32.72175358232555       -2.11149692932505       -1.22870487435900
C           32.06452363698768       -0.98783785975598       -0.63324475125927
N           30.72017298772272       -1.23076388560617       -0.49460567970495
H           33.80560484399814        0.12903501077883       -0.16770635180153
H           33.79362407785981        2.38230367787646        1.18147670657111
H           31.88622543792754        4.21847153564841        1.70649443045735
H           27.86622116441078        4.61799604872882        2.64096648718527
H           27.83542174955714        7.03988747432054        3.18682610283187
H           30.75263544767689        7.76800651754397        0.13395351123947
H           30.77818036620364        5.34867925204250       -0.42161235306024
H           26.78852632753293        4.53697024575539        0.20070191115609
H           24.90422669449774        2.64689472904374       -0.19439140667540
H           24.96538482130911       -2.60337874682113        0.32669083285346
H           26.88115764804731       -4.46307608936771       -0.05891100583010
H           30.94731081317057       -5.15123712480752        0.40904869043474
H           30.97832694258447       -7.58356885181156       -0.08606552688220
H           27.87707931285145       -7.03498967357276       -2.99138231796205
H           27.85324664770427       -4.60008992030751       -2.50921852073124
H           31.89443536848613       -4.05464149397546       -1.81593995443652
H           33.77168890539945       -2.14667495091837       -1.47140272691813
C           21.98803157486445       -0.01226195620371        0.03027991225675
C           20.76610420954378       -0.02630444928454        0.02429118296057
C           23.33748070211293        0.00157876529836        0.03204258330818
C           24.55929044279078        0.01630244308017        0.03173629816381

          :  Hamiltonian                  GFN1-xTB          :
         :: total energy            -244.443380860746 Eh    ::
         :: gradient norm              0.000483682585 Eh/a0 ::
         :: HOMO-LUMO gap              0.004936670419 eV    ::
         :: SCC energy              -247.808575794351 Eh    ::
         :: repulsion energy           3.476498185520 Eh    ::

    * Orbital Energies and Occupations

         #    Occupation            Energy/Eh            Energy/eV
      -------------------------------------------------------------
         1        2.0000           -0.9243333             -25.1524
       ...           ...                  ...                  ...
       204        2.0000           -0.4529915             -12.3265
       205        2.0000           -0.4506817             -12.2637
       206        2.0000           -0.4233961             -11.5212
       207        2.0000           -0.4223139             -11.4917
       208        2.0000           -0.4222368             -11.4896
       209        2.0000           -0.4216925             -11.4748
       210        2.0000           -0.4216171             -11.4728
       211        1.9997           -0.4181924             -11.3796
       212        1.9997           -0.4181884             -11.3795
       213        1.9997           -0.4179999             -11.3744
       214        1.9997           -0.4179962             -11.3743
       215        1.8854           -0.4123259             -11.2200
       216        1.1054           -0.4098667             -11.1530 (HOMO)
       217        1.0103           -0.4096853             -11.1481 (LUMO)
       218                         -0.3634786              -9.8908
       219                         -0.3601362              -9.7998
       220                         -0.3599384              -9.7944
       221                         -0.3514448              -9.5633
       222                         -0.3513697              -9.5613
       223                         -0.3500868              -9.5263
       224                         -0.3441771              -9.3655
       225                         -0.3441533              -9.3649
       226                         -0.3219281              -8.7601
       227                         -0.3191479              -8.6845
       ...                                ...                  ...
       438                          1.4922533              40.6063
      -------------------------------------------------------------
                  HL-Gap            0.0001814 Eh            0.0049 eV

Wiberg/Mayer (AO) data.
largest (>0.10) Wiberg bond orders for each atom

     #   Z sym  total        # sym  WBO       # sym  WBO       # sym  WBO
 ---------------------------------------------------------------------------
     1  27 Co   3.043 --    43 N    0.641     7 N    0.639    21 N    0.636
                            28 N    0.633
     2   6 C    3.930 --    42 C    1.367     3 C    1.364    44 H    0.969
     3   6 C    3.921 --     2 C    1.364     7 N    1.200     4 C    1.173
     4   6 C    3.959 --     5 C    1.650     3 C    1.173    45 H    0.974
     5   6 C    3.962 --     4 C    1.650     6 C    1.175    46 H    0.973
     6   6 C    3.921 --     8 C    1.318     7 N    1.212     5 C    1.175
     7   7 N    3.347 --     6 C    1.212     3 C    1.200     1 Co   0.639
     8   6 C    3.931 --    18 C    1.326     6 C    1.318     9 C    1.035
     9   6 C    3.985 --    17 C    1.383    10 C    1.383     8 C    1.035
    10   6 C    3.986 --    11 C    1.464     9 C    1.383    47 H    0.971
                            16 C    0.102
    11   6 C    3.987 --    10 C    1.464    12 C    1.387    48 H    0.964
                            17 C    0.102
    12   6 C    3.941 --    16 C    1.388    11 C    1.387    13 N    0.920
    13   7 N    3.866 --    15 O    1.455    14 O    1.455    12 C    0.920
    14   8 O    1.830 --    13 N    1.455    15 O    0.252
    15   8 O    1.830 --    13 N    1.455    14 O    0.252
    16   6 C    3.987 --    17 C    1.463    12 C    1.388    49 H    0.964
                            10 C    0.102
    17   6 C    3.986 --    16 C    1.463     9 C    1.383    50 H    0.971
                            11 C    0.102
    18   6 C    3.916 --     8 C    1.326    21 N    1.197    19 C    1.181
    19   6 C    3.958 --    20 C    1.638    18 C    1.181    51 H    0.973
    20   6 C    3.961 --    19 C    1.638    22 C    1.189    52 H    0.973
    21   7 N    3.348 --    22 C    1.226    18 C    1.197     1 Co   0.636
    22   6 C    3.902 --    23 C    1.264    21 N    1.226    20 C    1.189
    23   6 C    3.935 --    22 C    1.264    24 C    1.261   122 C    1.186
    24   6 C    3.902 --    23 C    1.261    28 N    1.228    25 C    1.190
    25   6 C    3.961 --    26 C    1.636    24 C    1.190    53 H    0.973
    26   6 C    3.957 --    25 C    1.636    27 C    1.181    54 H    0.973
    27   6 C    3.916 --    29 C    1.327    28 N    1.196    26 C    1.181
    28   7 N    3.349 --    24 C    1.228    27 C    1.196     1 Co   0.633
    29   6 C    3.931 --    27 C    1.327    39 C    1.316    30 C    1.036
    30   6 C    3.985 --    38 C    1.383    31 C    1.383    29 C    1.036
    31   6 C    3.986 --    32 C    1.464    30 C    1.383    55 H    0.971
                            37 C    0.102
    32   6 C    3.987 --    31 C    1.464    33 C    1.387    56 H    0.964
                            38 C    0.102
    33   6 C    3.941 --    37 C    1.387    32 C    1.387    34 N    0.920
    34   7 N    3.866 --    36 O    1.455    35 O    1.455    33 C    0.920
    35   8 O    1.829 --    34 N    1.455    36 O    0.252
    36   8 O    1.830 --    34 N    1.455    35 O    0.252
    37   6 C    3.987 --    38 C    1.464    33 C    1.387    57 H    0.964
                            31 C    0.102
    38   6 C    3.986 --    37 C    1.464    30 C    1.383    58 H    0.971
                            32 C    0.102
    39   6 C    3.920 --    29 C    1.316    43 N    1.214    40 C    1.174
    40   6 C    3.963 --    41 C    1.651    39 C    1.174    59 H    0.973
    41   6 C    3.959 --    40 C    1.651    42 C    1.173    60 H    0.974
    42   6 C    3.921 --     2 C    1.367    43 N    1.197    41 C    1.173
    43   7 N    3.346 --    39 C    1.214    42 C    1.197     1 Co   0.641
    44   1 H    0.999 --     2 C    0.969
    45   1 H    0.997 --     4 C    0.974
    46   1 H    1.002 --     5 C    0.973
    47   1 H    1.003 --    10 C    0.971
    48   1 H    1.006 --    11 C    0.964
    49   1 H    1.006 --    16 C    0.964
    50   1 H    1.003 --    17 C    0.971
    51   1 H    1.002 --    19 C    0.973
    52   1 H    1.001 --    20 C    0.973
    53   1 H    1.001 --    25 C    0.973
    54   1 H    1.003 --    26 C    0.973
    55   1 H    1.003 --    31 C    0.971
    56   1 H    1.006 --    32 C    0.964
    57   1 H    1.006 --    37 C    0.964
    58   1 H    1.004 --    38 C    0.971
    59   1 H    1.002 --    40 C    0.973
    60   1 H    0.996 --    41 C    0.974
    61  27 Co   3.053 --   103 N    0.643    67 N    0.639    81 N    0.636
                            88 N    0.633
    62   6 C    3.931 --   102 C    1.368    63 C    1.364   104 H    0.969
    63   6 C    3.921 --    62 C    1.364    67 N    1.200    64 C    1.174
    64   6 C    3.958 --    65 C    1.650    63 C    1.174   105 H    0.974
    65   6 C    3.962 --    64 C    1.650    66 C    1.175   106 H    0.973
    66   6 C    3.921 --    68 C    1.317    67 N    1.212    65 C    1.175
    67   7 N    3.348 --    66 C    1.212    63 C    1.200    61 Co   0.639
    68   6 C    3.931 --    78 C    1.326    66 C    1.317    69 C    1.036
    69   6 C    3.985 --    77 C    1.383    70 C    1.383    68 C    1.036
    70   6 C    3.985 --    71 C    1.464    69 C    1.383   107 H    0.971
                            76 C    0.102
    71   6 C    3.987 --    70 C    1.464    72 C    1.387   108 H    0.964
                            77 C    0.102
    72   6 C    3.941 --    76 C    1.388    71 C    1.387    73 N    0.920
    73   7 N    3.866 --    75 O    1.455    74 O    1.455    72 C    0.920
    74   8 O    1.830 --    73 N    1.455    75 O    0.252
    75   8 O    1.830 --    73 N    1.455    74 O    0.252
    76   6 C    3.987 --    77 C    1.463    72 C    1.388   109 H    0.964
                            70 C    0.102
    77   6 C    3.986 --    76 C    1.463    69 C    1.383   110 H    0.971
                            71 C    0.102
    78   6 C    3.916 --    68 C    1.326    81 N    1.197    79 C    1.181
    79   6 C    3.958 --    80 C    1.638    78 C    1.181   111 H    0.973
    80   6 C    3.961 --    79 C    1.638    82 C    1.189   112 H    0.973
    81   7 N    3.348 --    82 C    1.226    78 C    1.197    61 Co   0.636
    82   6 C    3.902 --    83 C    1.264    81 N    1.226    80 C    1.189
    83   6 C    3.935 --    82 C    1.264    84 C    1.260   124 C    1.186
    84   6 C    3.902 --    83 C    1.260    88 N    1.227    85 C    1.190
    85   6 C    3.959 --    86 C    1.636    84 C    1.190   113 H    0.973
    86   6 C    3.958 --    85 C    1.636    87 C    1.181   114 H    0.973
    87   6 C    3.916 --    89 C    1.326    88 N    1.196    86 C    1.181
    88   7 N    3.349 --    84 C    1.227    87 C    1.196    61 Co   0.633
    89   6 C    3.931 --    87 C    1.326    99 C    1.316    90 C    1.037
    90   6 C    3.985 --    98 C    1.382    91 C    1.382    89 C    1.037
    91   6 C    3.985 --    92 C    1.464    90 C    1.382   115 H    0.971
                            97 C    0.102
    92   6 C    3.987 --    91 C    1.464    93 C    1.387   116 H    0.964
                            98 C    0.102
    93   6 C    3.941 --    97 C    1.387    92 C    1.387    94 N    0.920
    94   7 N    3.866 --    96 O    1.455    95 O    1.455    93 C    0.920
    95   8 O    1.829 --    94 N    1.455    96 O    0.252
    96   8 O    1.830 --    94 N    1.455    95 O    0.252
    97   6 C    3.987 --    98 C    1.464    93 C    1.387   117 H    0.964
                            91 C    0.102
    98   6 C    3.985 --    97 C    1.464    90 C    1.382   118 H    0.971
                            92 C    0.102
    99   6 C    3.921 --    89 C    1.316   103 N    1.214   100 C    1.174
   100   6 C    3.963 --   101 C    1.651    99 C    1.174   119 H    0.973
   101   6 C    3.958 --   100 C    1.651   102 C    1.173   120 H    0.974
   102   6 C    3.921 --    62 C    1.368   103 N    1.197   101 C    1.173
   103   7 N    3.346 --    99 C    1.214   102 C    1.197    61 Co   0.643
   104   1 H    0.999 --    62 C    0.969
   105   1 H    0.997 --    64 C    0.974
   106   1 H    1.002 --    65 C    0.973
   107   1 H    1.004 --    70 C    0.971
   108   1 H    1.006 --    71 C    0.964
   109   1 H    1.006 --    76 C    0.964
   110   1 H    1.003 --    77 C    0.971
   111   1 H    1.002 --    79 C    0.973
   112   1 H    1.001 --    80 C    0.973
   113   1 H    1.001 --    85 C    0.973
   114   1 H    1.003 --    86 C    0.973
   115   1 H    1.004 --    91 C    0.971
   116   1 H    1.006 --    92 C    0.964
   117   1 H    1.006 --    97 C    0.964
   118   1 H    1.004 --    98 C    0.971
   119   1 H    1.002 --   100 C    0.973
   120   1 H    0.996 --   101 C    0.974
   121   6 C    3.931 --   122 C    2.475   123 C    1.308
   122   6 C    3.920 --   121 C    2.475    23 C    1.186   124 C    0.198
   123   6 C    3.931 --   124 C    2.475   121 C    1.308
   124   6 C    3.920 --   123 C    2.475    83 C    1.186   122 C    0.198
 ---------------------------------------------------------------------------

           -------------------------------------------------
          | TOTAL ENERGY             -244.443380860746 Eh   |
          | GRADIENT NORM               0.000483682585 Eh/α |
          | HOMO-LUMO GAP               0.004936670419 eV   |
           -------------------------------------------------

 * finished run on 2022/07/30 at 01:22:43.696
