   * xtb version 6.5.1 (b24c23e) compiled by 'conda@728c89f4b128' on 2022-07-12
          program call               : xtb Fe_BSA_C2_2.xyz --gfn 1 --opt -T 48

   ID    Z sym.   atoms
    1   26 Fe     1, 65
    2    6 C      2-6, 8-12, 17-21, 23-28, 30-34, 39-44, 66-70, 72-76, 81-85,
                  87-92, 94-98, 103-108, 129, 130
    3    7 N      7, 22, 29, 45, 71, 86, 93, 109
    4   16 S      13, 35, 77, 99
    5    8 O      14-16, 36-38, 78-80, 100-102
    6    1 H      46-64, 110-128
########################################################################
[WARNING] Please study the warnings concerning your input carefully
-1- prog_main_parseArguments: Unknown option '-T' provided
########################################################################

          :  Hamiltonian                  GFN1-xTB          :
 * total energy  :  -262.0814853 Eh     change       -0.4979597E-08 Eh
 * total energy  :  -262.1868165 Eh     change       -0.1053312E+00 Eh
 * total energy  :  -262.2562960 Eh     change       -0.6947948E-01 Eh
 * total energy  :  -262.2752366 Eh     change       -0.1894058E-01 Eh
 * total energy  :  -262.2881736 Eh     change       -0.1293700E-01 Eh
 * total energy  :  -262.2964536 Eh     change       -0.8280071E-02 Eh
 * total energy  :  -262.3023615 Eh     change       -0.5907817E-02 Eh
 * total energy  :  -262.3062223 Eh     change       -0.3860818E-02 Eh
 * total energy  :  -262.3083355 Eh     change       -0.2113195E-02 Eh
 * total energy  :  -262.3094169 Eh     change       -0.1081417E-02 Eh
 * total energy  :  -262.3146279 Eh     change       -0.2918079E-04 Eh
 * total energy  :  -262.3146721 Eh     change       -0.4417330E-04 Eh
 * total energy  :  -262.3146997 Eh     change       -0.2758950E-04 Eh
 * total energy  :  -262.3147274 Eh     change       -0.2771316E-04 Eh
 * total energy  :  -262.3147494 Eh     change       -0.2204946E-04 Eh
 * total energy  :  -262.3147595 Eh     change       -0.1000947E-04 Eh
 * total energy  :  -262.3147709 Eh     change       -0.1139700E-04 Eh
 * total energy  :  -262.3147784 Eh     change       -0.7562474E-05 Eh
 * total energy  :  -262.3147818 Eh     change       -0.3423763E-05 Eh
   *** GEOMETRY OPTIMIZATION CONVERGED AFTER 44 ITERATIONS ***

 final structure:
================
130
 xtb: 6.5.1 (b24c23e)
Fe          18.31901684289640       -0.01474604670356        0.04881741836570
C           14.93855010683835        0.10912501444903        0.10163838356913
C           15.58743816293464       -0.38269356441373        1.21629932984621
C           14.91766460272216       -0.89531539835500        2.37353650100279
C           15.87470027394314       -1.14012222452913        3.29978283866555
C           17.12749032609282       -0.76325220634804        2.71076671602682
N           16.94177556149527       -0.34712062059148        1.42064227930692
C           18.34052233477149       -0.73880411646117        3.39127027944510
C           18.35224938998022       -1.07134626837946        4.83418367403810
C           17.61458044635674       -0.30493585165870        5.74011309658996
C           17.62942777575739       -0.60710111204400        7.09173930361453
C           18.38269627769978       -1.68671805889020        7.52374892974429
S           18.41571365089097       -2.06682552002915        9.23499604441857
O           18.11599703477120       -0.90615332387485       10.02049663075591
O           17.12831526071406       -3.05556893653330        9.28113426241814
O           19.58219217557605       -2.83249779523924        9.56274917867285
C           19.12351428223031       -2.46564137628382        6.64980954195602
C           19.10659852822115       -2.15081846007165        5.30107974801531
C           19.54215596635306       -0.41278333538471        2.77561150819269
C           20.79680480777277       -0.30894999278147        3.45946639998240
C           21.74332121442481       -0.11320050933318        2.50959793946702
N           19.71840234405640       -0.21680732235556        1.42731968825338
C           21.06568041127086       -0.09280969832836        1.25152684404126
C           21.72326126939994       -0.04820938531989        0.01647540783627
C           21.03673679480698        0.01620959629235       -1.20249011513150
C           21.68090653059021       -0.00952986359613       -2.47759404347940
C           20.72128040715424        0.23014755020732       -3.40440980335138
C           19.49267589332201        0.40636942296387       -2.68920877300324
N           19.69564712579451        0.22042096717509       -1.34358653017446
C           18.29303393578618        0.79146762852579       -3.27441431198504
C           18.28651167814941        1.12199227215918       -4.71753903056824
C           17.47696835352815        0.40797408072651       -5.60437923807800
C           17.47470857832442        0.71333888231699       -6.95567932636858
C           18.28680369995814        1.74065165904893       -7.40707414826654
S           18.28348346131294        2.13999660839181       -9.11603290023689
O           18.65801091421869        3.50869094046888       -9.32438473216315
O           19.53526340052602        1.22517480558242       -9.59513357713458
O           17.08925279493062        1.64781048395730       -9.73214212939120
C           19.09570895635760        2.47068751289306       -6.55119165762515
C           19.09383667827214        2.15437815713629       -5.20296068463739
C           17.10143992017207        0.87669495665684       -2.56166014452859
C           15.85270368362506        1.31018598896432       -3.11995000310459
C           14.90923306017852        1.11109304932821       -2.16958083753514
C           15.58357232073914        0.57018193296537       -1.02784245514656
N           16.93153488813190        0.48449281050840       -1.26139819026245
H           13.85487405616221        0.13400363017016        0.11373341016851
H           13.85196359645061       -1.04109007645727        2.44936941129184
H           15.75600778044110       -1.54105834728033        4.29332946366286
H           17.04245174246612        0.54323179793571        5.38274861806074
H           17.07204773946294       -0.01227108088848        7.80441425668699
H           16.97773937126797       -3.36661537470479       10.18212658786742
H           19.70504627879003       -3.29940620269178        7.02269169447206
H           19.67151591171458       -2.75293971979828        4.59906821840693
H           20.92671841713127       -0.37341211859685        4.52742174369712
H           22.80639205069810        0.00976201767882        2.63703359862626
H           22.73156281482028       -0.19375177989280       -2.63172436027213
H           20.82571072876568        0.27501107123474       -4.47618929240506
H           16.85867329824272       -0.40097893685787       -5.23321176834427
H           16.85136075385482        0.16618941359874       -7.65167297705908
H           19.97368534046672        1.63121431793414      -10.35297949376950
H           19.70924363265974        3.27567043179438       -6.93597038889184
H           19.70978435734531        2.72107904531858       -4.51448818742416
H           15.72712101426962        1.71412639049532       -4.11134451456032
H           13.84936472910193        1.30298463660346       -2.21974273891292
Fe          29.15397842965413        0.00440941111324       -0.05095158752899
C           32.53445936180284        0.13888786848598       -0.05419210930430
C           31.88562353532354        0.09347164527325       -1.27171110333986
C           32.55544402179930        0.04444377423140       -2.53642836462872
C           31.59844192431640        0.15897420814123       -3.48764369543378
C           30.34562616181648        0.29167554032918       -2.80113367278653
N           30.53128372170219        0.20194064259583       -1.44852431879654
C           29.13262912429072        0.56569635604684       -3.42457731933587
C           29.12104058860589        0.78965682010653       -4.88828393216259
C           29.85866871177677        1.83659431144134       -5.44692334934283
C           29.84399408613147        2.05508795418861       -6.81457089148100
C           29.09093300850175        1.21132597639820       -7.61493531554897
S           29.05818953218256        1.49016724099259       -9.34557157401075
O           29.35781027506373        2.85892682107559       -9.64678497109758
O           30.34575084962504        0.58851051236426       -9.75340604651457
O           27.89187024138242        0.89957773227904       -9.93316295639745
C           28.35015221080349        0.16458439937965       -7.09064608645866
C           28.36689383820481       -0.04107490393192       -5.72101225920609
C           27.93094615289431        0.64124810865176       -2.73212874411243
C           26.67630608928300        0.99014208077484       -3.32940239499518
C           25.72974491232345        0.82127324600854       -2.37443332807287
N           27.75463829583858        0.32550931038767       -1.40676482657531
C           26.40735348159968        0.37579789938644       -1.19767672940590
C           25.74972905541223       -0.03863789574878       -0.03340655410492
C           26.43619186578843       -0.42873503244889        1.12328068984528
C           25.79192718848867       -0.92330981988173        2.29879288009743
C           26.75152095523033       -1.04291832578517        3.24862230489794
C           27.98020360499656       -0.61528528826095        2.64902834076418
N           27.77730260609995       -0.29125791338294        1.32981824555578
C           29.17983678689463       -0.47370391464593        3.33512941620228
C           29.18626905923596       -0.69941670450945        4.79831820393934
C           29.99579436301414       -1.69046693149618        5.35883613987014
C           29.99831150840008       -1.90539862973054        6.72742030406090
C           29.18641509197123       -1.11716838116361        7.52628161882033
S           29.19108178552952       -1.37639158734783        9.26194819962804
O           28.81547065191254       -0.18181073608075        9.96106504280576
O           27.94092285898902       -2.40552232797681        9.36868704419447
O           30.38648917752029       -2.05947630035839        9.65280522790098
C           28.37735660155047       -0.12283112153900        7.00045260465638
C           28.37900905362798        0.08081675578312        5.63065387189727
C           30.37150671224944       -0.13146456430600        2.70426186636858
C           31.62025303306309        0.06508934860665        3.38318893022357
C           32.56373403065992        0.23108709848314        2.42649408442428
C           31.88939920813529        0.15016900761770        1.16569676541188
N           30.54143860428975       -0.01571964322633        1.35107864044582
H           33.61813465246306        0.16651777299206       -0.05620594595628
H           33.62114935448646       -0.06301669860410       -2.66070737208148
H           31.71716326696695        0.15326038164413       -4.55901983351315
H           30.43064387742622        2.49281240644947       -4.80143823057033
H           30.40134676885649        2.87116591049835       -7.25703574766494
H           30.49645134397947        0.63218790115977      -10.70555735085331
H           27.76879160828672       -0.47253282505443       -7.74523398571800
H           27.80200983889295       -0.85999253844562       -5.29115088308982
H           26.54642966350728        1.32452795886792       -4.34571000013194
H           24.66666167368286        0.98249220358368       -2.44753024796227
H           24.74123264711381       -1.15123605572325        2.37401956568483
H           26.64702441628094       -1.39692880797056        4.26123416676097
H           30.61394813145681       -2.30532955850730        4.71518612383644
H           30.62174449588989       -2.67079314218089        7.17221019517017
H           27.51509662977931       -2.32430991683286       10.23091838225310
H           27.76390751540882        0.48327373799683        7.65527677035212
H           27.76299578459385        0.86163740158745        5.20008822636893
H           31.74584727270154        0.07425043625212        4.45367639848848
H           33.62360785998271        0.39085127514261        2.54398359546519
C           23.12742808884369       -0.06202449992605       -0.00173066591437
C           24.34556001404891       -0.05817484010303       -0.02162604564042

          :  Hamiltonian                  GFN1-xTB          :
         :: total energy            -262.314781840218 Eh    ::
         :: gradient norm              0.000470257266 Eh/a0 ::
         :: HOMO-LUMO gap              0.099442390399 eV    ::
         :: SCC energy              -265.700212443132 Eh    ::
         :: repulsion energy           3.507737185172 Eh    ::

    * Orbital Energies and Occupations

         #    Occupation            Energy/Eh            Energy/eV
      -------------------------------------------------------------
         1        2.0000           -1.0384643             -28.2581
       ...           ...                  ...                  ...
       215        2.0000           -0.4486887             -12.2094
       216        2.0000           -0.4463321             -12.1453
       217        2.0000           -0.4463151             -12.1449
       218        2.0000           -0.4200179             -11.4293
       219        2.0000           -0.4163257             -11.3288
       220        2.0000           -0.4163185             -11.3286
       221        1.9929           -0.4091332             -11.1331
       222        1.9924           -0.4090704             -11.1314
       223        1.9418           -0.4071151             -11.0782
       224        1.9388           -0.4070664             -11.0768
       225        1.9303           -0.4069388             -11.0734
       226        1.9301           -0.4069360             -11.0733
       227        1.7800           -0.4057696             -11.0416 (HOMO)
       228        0.2946           -0.4021152             -10.9421 (LUMO)
       229        0.1992           -0.4016917             -10.9306
       230                         -0.3583845              -9.7521
       231                         -0.3496996              -9.5158
       232                         -0.3496925              -9.5156
       233                         -0.3410155              -9.2795
       234                         -0.3227428              -8.7823
       235                         -0.3198361              -8.7032
       236                         -0.3192958              -8.6885
       237                         -0.3183071              -8.6616
       238                         -0.3112397              -8.4693
       ...                                ...                  ...
       474                          1.3166703              35.8284
      -------------------------------------------------------------
                  HL-Gap            0.0036544 Eh            0.0994 eV

Wiberg/Mayer (AO) data.
largest (>0.10) Wiberg bond orders for each atom

     #   Z sym  total        # sym  WBO       # sym  WBO       # sym  WBO
 ---------------------------------------------------------------------------
     1  26 Fe   3.197 --    45 N    0.680    22 N    0.670     7 N    0.669
                            29 N    0.662
     2   6 C    3.927 --    44 C    1.364     3 C    1.361    46 H    0.970
     3   6 C    3.922 --     2 C    1.361     7 N    1.208     4 C    1.173
     4   6 C    3.959 --     5 C    1.650     3 C    1.173    47 H    0.975
     5   6 C    3.961 --     4 C    1.650     6 C    1.174    48 H    0.973
     6   6 C    3.922 --     8 C    1.313     7 N    1.223     5 C    1.174
     7   7 N    3.380 --     6 C    1.223     3 C    1.208     1 Fe   0.669
     8   6 C    3.927 --    19 C    1.329     6 C    1.313     9 C    1.032
     9   6 C    3.986 --    18 C    1.390    10 C    1.390     8 C    1.032
    10   6 C    3.986 --    11 C    1.450     9 C    1.390    49 H    0.971
                            17 C    0.106
    11   6 C    3.989 --    10 C    1.450    12 C    1.407    50 H    0.967
                            18 C    0.106
    12   6 C    3.931 --    17 C    1.408    11 C    1.407    13 S    0.754
    13  16 S    5.265 --    14 O    1.720    16 O    1.719    15 O    1.014
                            12 C    0.754
    14   8 O    2.079 --    13 S    1.720    16 O    0.139
    15   8 O    2.088 --    13 S    1.014    51 H    0.827
    16   8 O    2.078 --    13 S    1.719    14 O    0.139
    17   6 C    3.989 --    18 C    1.450    12 C    1.408    52 H    0.967
                            10 C    0.106
    18   6 C    3.986 --    17 C    1.450     9 C    1.390    53 H    0.971
                            11 C    0.106
    19   6 C    3.918 --     8 C    1.329    22 N    1.202    20 C    1.180
    20   6 C    3.956 --    21 C    1.636    19 C    1.180    54 H    0.973
    21   6 C    3.960 --    20 C    1.636    23 C    1.189    55 H    0.970
    22   7 N    3.384 --    23 C    1.240    19 C    1.202     1 Fe   0.670
    23   6 C    3.907 --    24 C    1.256    22 N    1.240    21 C    1.189
    24   6 C    3.927 --    23 C    1.256    25 C    1.253   129 C    1.192
    25   6 C    3.908 --    24 C    1.253    29 N    1.241    26 C    1.190
    26   6 C    3.960 --    27 C    1.635    25 C    1.190    56 H    0.970
    27   6 C    3.956 --    26 C    1.635    28 C    1.181    57 H    0.973
    28   6 C    3.918 --    30 C    1.327    29 N    1.202    27 C    1.181
    29   7 N    3.380 --    25 C    1.241    28 C    1.202     1 Fe   0.662
    30   6 C    3.927 --    28 C    1.327    41 C    1.314    31 C    1.033
    31   6 C    3.986 --    32 C    1.391    40 C    1.388    30 C    1.033
    32   6 C    3.985 --    33 C    1.448    31 C    1.391    58 H    0.971
                            39 C    0.106
    33   6 C    3.989 --    32 C    1.448    34 C    1.409    59 H    0.966
                            40 C    0.106
    34   6 C    3.932 --    33 C    1.409    39 C    1.407    35 S    0.753
    35  16 S    5.274 --    38 O    1.734    36 O    1.712    37 O    1.019
                            34 C    0.753
    36   8 O    2.071 --    35 S    1.712    38 O    0.138
    37   8 O    2.092 --    35 S    1.019    60 H    0.827
    38   8 O    2.091 --    35 S    1.734    36 O    0.138
    39   6 C    3.989 --    40 C    1.451    34 C    1.407    61 H    0.967
                            32 C    0.106
    40   6 C    3.986 --    39 C    1.451    31 C    1.388    62 H    0.971
                            33 C    0.106
    41   6 C    3.921 --    30 C    1.314    45 N    1.223    42 C    1.173
    42   6 C    3.961 --    43 C    1.651    41 C    1.173    63 H    0.973
    43   6 C    3.959 --    42 C    1.651    44 C    1.172    64 H    0.974
    44   6 C    3.922 --     2 C    1.364    45 N    1.206    43 C    1.172
    45   7 N    3.385 --    41 C    1.223    44 C    1.206     1 Fe   0.680
    46   1 H    1.000 --     2 C    0.970
    47   1 H    0.997 --     4 C    0.975
    48   1 H    1.003 --     5 C    0.973
    49   1 H    1.003 --    10 C    0.971
    50   1 H    0.999 --    11 C    0.967
    51   1 H    0.853 --    15 O    0.827
    52   1 H    0.999 --    17 C    0.967
    53   1 H    1.003 --    18 C    0.971
    54   1 H    1.003 --    20 C    0.973
    55   1 H    1.004 --    21 C    0.970
    56   1 H    1.004 --    26 C    0.970
    57   1 H    1.003 --    27 C    0.973
    58   1 H    1.003 --    32 C    0.971
    59   1 H    0.999 --    33 C    0.966
    60   1 H    0.854 --    37 O    0.827
    61   1 H    0.999 --    39 C    0.967
    62   1 H    1.003 --    40 C    0.971
    63   1 H    1.003 --    42 C    0.973
    64   1 H    0.997 --    43 C    0.974
    65  26 Fe   3.197 --   109 N    0.680    86 N    0.670    71 N    0.669
                            93 N    0.662
    66   6 C    3.927 --   108 C    1.364    67 C    1.361   110 H    0.970
    67   6 C    3.922 --    66 C    1.361    71 N    1.208    68 C    1.173
    68   6 C    3.959 --    69 C    1.650    67 C    1.173   111 H    0.975
    69   6 C    3.961 --    68 C    1.650    70 C    1.174   112 H    0.973
    70   6 C    3.922 --    72 C    1.313    71 N    1.223    69 C    1.174
    71   7 N    3.380 --    70 C    1.223    67 C    1.208    65 Fe   0.669
    72   6 C    3.927 --    83 C    1.329    70 C    1.313    73 C    1.032
    73   6 C    3.986 --    82 C    1.390    74 C    1.390    72 C    1.032
    74   6 C    3.986 --    75 C    1.450    73 C    1.390   113 H    0.971
                            81 C    0.106
    75   6 C    3.989 --    74 C    1.450    76 C    1.407   114 H    0.967
                            82 C    0.106
    76   6 C    3.931 --    81 C    1.408    75 C    1.407    77 S    0.754
    77  16 S    5.265 --    78 O    1.720    80 O    1.719    79 O    1.014
                            76 C    0.754
    78   8 O    2.079 --    77 S    1.720    80 O    0.139
    79   8 O    2.088 --    77 S    1.014   115 H    0.827
    80   8 O    2.078 --    77 S    1.719    78 O    0.139
    81   6 C    3.989 --    82 C    1.450    76 C    1.408   116 H    0.967
                            74 C    0.106
    82   6 C    3.986 --    81 C    1.450    73 C    1.390   117 H    0.971
                            75 C    0.106
    83   6 C    3.918 --    72 C    1.329    86 N    1.202    84 C    1.180
    84   6 C    3.956 --    85 C    1.636    83 C    1.180   118 H    0.973
    85   6 C    3.960 --    84 C    1.636    87 C    1.189   119 H    0.970
    86   7 N    3.384 --    87 C    1.240    83 C    1.202    65 Fe   0.670
    87   6 C    3.907 --    88 C    1.256    86 N    1.240    85 C    1.189
    88   6 C    3.927 --    87 C    1.256    89 C    1.253   130 C    1.192
    89   6 C    3.908 --    88 C    1.253    93 N    1.241    90 C    1.190
    90   6 C    3.960 --    91 C    1.635    89 C    1.190   120 H    0.970
    91   6 C    3.956 --    90 C    1.635    92 C    1.181   121 H    0.973
    92   6 C    3.918 --    94 C    1.327    93 N    1.202    91 C    1.181
    93   7 N    3.380 --    89 C    1.241    92 C    1.202    65 Fe   0.662
    94   6 C    3.927 --    92 C    1.327   105 C    1.314    95 C    1.033
    95   6 C    3.986 --    96 C    1.391   104 C    1.388    94 C    1.033
    96   6 C    3.985 --    97 C    1.448    95 C    1.391   122 H    0.971
                           103 C    0.106
    97   6 C    3.989 --    96 C    1.448    98 C    1.409   123 H    0.966
                           104 C    0.106
    98   6 C    3.932 --    97 C    1.409   103 C    1.407    99 S    0.753
    99  16 S    5.273 --   102 O    1.733   100 O    1.712   101 O    1.019
                            98 C    0.753
   100   8 O    2.071 --    99 S    1.712   102 O    0.138
   101   8 O    2.092 --    99 S    1.019   124 H    0.827
   102   8 O    2.090 --    99 S    1.733   100 O    0.138
   103   6 C    3.989 --   104 C    1.451    98 C    1.407   125 H    0.967
                            96 C    0.106
   104   6 C    3.986 --   103 C    1.451    95 C    1.388   126 H    0.971
                            97 C    0.106
   105   6 C    3.921 --    94 C    1.314   109 N    1.223   106 C    1.173
   106   6 C    3.961 --   107 C    1.651   105 C    1.173   127 H    0.973
   107   6 C    3.959 --   106 C    1.651   108 C    1.172   128 H    0.974
   108   6 C    3.922 --    66 C    1.364   109 N    1.206   107 C    1.172
   109   7 N    3.385 --   105 C    1.223   108 C    1.206    65 Fe   0.680
   110   1 H    1.000 --    66 C    0.970
   111   1 H    0.997 --    68 C    0.975
   112   1 H    1.003 --    69 C    0.973
   113   1 H    1.003 --    74 C    0.971
   114   1 H    0.999 --    75 C    0.967
   115   1 H    0.853 --    79 O    0.827
   116   1 H    0.999 --    81 C    0.967
   117   1 H    1.003 --    82 C    0.971
   118   1 H    1.003 --    84 C    0.973
   119   1 H    1.004 --    85 C    0.970
   120   1 H    1.004 --    90 C    0.970
   121   1 H    1.003 --    91 C    0.973
   122   1 H    1.003 --    96 C    0.971
   123   1 H    0.999 --    97 C    0.966
   124   1 H    0.854 --   101 O    0.827
   125   1 H    0.999 --   103 C    0.967
   126   1 H    1.003 --   104 C    0.971
   127   1 H    1.003 --   106 C    0.973
   128   1 H    0.997 --   107 C    0.974
   129   6 C    3.925 --   130 C    2.554    24 C    1.192
   130   6 C    3.925 --   129 C    2.554    88 C    1.192
 ---------------------------------------------------------------------------

           -------------------------------------------------
          | TOTAL ENERGY             -262.314781840218 Eh   |
          | GRADIENT NORM               0.000470257266 Eh/α |
          | HOMO-LUMO GAP               0.099442390399 eV   |
           -------------------------------------------------

 * finished run on 2022/07/29 at 20:16:38.452
