   * xtb version 6.5.1 (b24c23e) compiled by 'conda@728c89f4b128' on 2022-07-12
          program call               : xtb Cu_Ph3OH_C4_2.xyz --gfn 1 --opt -T 48

   ID    Z sym.   atoms
    1   29 Cu     1, 63
    2    6 C      2-6, 8-11, 13, 15, 17-20, 22-27, 29-32, 34, 36, 38-42,
                  64-68, 70-73, 75, 77, 79-82, 84-89, 91-94, 96, 98, 100-104,
                  125-128
    3    7 N      7, 21, 28, 43, 69, 83, 90, 105
    4    8 O      12, 14, 16, 33, 35, 37, 74, 76, 78, 95, 97, 99
    5    1 H      44-62, 106-124
########################################################################
[WARNING] Please study the warnings concerning your input carefully
-1- prog_main_parseArguments: Unknown option '-T' provided
########################################################################

          :  Hamiltonian                  GFN1-xTB          :
 * total energy  :  -254.5023565 Eh     change       -0.2101444E-08 Eh
 * total energy  :  -254.9638731 Eh     change       -0.4615166E+00 Eh
 * total energy  :  -255.0684469 Eh     change       -0.1045738E+00 Eh
 * total energy  :  -255.1200419 Eh     change       -0.5159495E-01 Eh
 * total energy  :  -255.1383147 Eh     change       -0.1827286E-01 Eh
 * total energy  :  -255.1469386 Eh     change       -0.8623889E-02 Eh
 * total energy  :  -255.1504506 Eh     change       -0.3512005E-02 Eh
 * total energy  :  -255.1520041 Eh     change       -0.1553495E-02 Eh
 * total energy  :  -255.1533818 Eh     change       -0.1377688E-02 Eh
 * total energy  :  -255.1542367 Eh     change       -0.8549208E-03 Eh
 * total energy  :  -255.1592852 Eh     change       -0.1270562E-04 Eh
 * total energy  :  -255.1592991 Eh     change       -0.1392013E-04 Eh
 * total energy  :  -255.1593116 Eh     change       -0.1250801E-04 Eh
 * total energy  :  -255.1593191 Eh     change       -0.7503655E-05 Eh
 * total energy  :  -255.1593253 Eh     change       -0.6127149E-05 Eh
 * total energy  :  -255.1593321 Eh     change       -0.6806294E-05 Eh
 * total energy  :  -255.1593382 Eh     change       -0.6147475E-05 Eh
 * total energy  :  -255.1593433 Eh     change       -0.5068582E-05 Eh
 * total energy  :  -255.1593471 Eh     change       -0.3844709E-05 Eh
   *** GEOMETRY OPTIMIZATION CONVERGED AFTER 58 ITERATIONS ***

 final structure:
================
128
 xtb: 6.5.1 (b24c23e)
Cu          15.98349287779009        0.05876325332248       -0.00816529758186
C           12.58149865838076        0.09539236719445       -0.17443851971657
C           13.21594903810965        1.32696688745922       -0.11301491795402
C           12.54021731960403        2.59241216174924       -0.07638081405431
C           13.49779608032081        3.54950939199769       -0.00129799830633
C           14.76899188452623        2.87738510800537       -0.00079092710022
N           14.56582597954589        1.52853929191406       -0.06112191536731
C           16.01251798818940        3.50872813392925        0.07706370958621
C           16.02720559162884        4.99371083293950        0.11963495204291
C           15.53285700493510        5.73133598773486       -0.95597782315763
C           15.55283347057926        7.12070070903070       -0.91622747980460
O           15.08302912663245        7.84777656938547       -1.95953085232531
C           16.06085189423788        7.77705328830008        0.20589617833980
O           16.06465244273612        9.14761147785077        0.21838925219447
C           16.55034844044596        7.04026280346385        1.28122842711203
O           17.02876197216291        7.75390249431467        2.34889300314084
C           16.53924906688697        5.65152700048032        1.24107170881604
C           17.24404077653624        2.85174650509233        0.11797640808187
C           18.52274139313980        3.50384786576105        0.14128478128235
C           19.46720640420686        2.52924646145017        0.16213949699059
N           17.43107256938623        1.49455037304878        0.11273447647565
C           18.77402888024146        1.27645946478938        0.14402233113671
C           19.40871701523481        0.02194865845156        0.14249653914135
C           18.75080449486446       -1.21943825431452        0.09444182729769
C           19.41925112151155       -2.48578124957419        0.06932406554031
C           18.45623262016950       -3.43988184619437        0.00620125844174
C           17.19082651056426       -2.76183747258732       -0.00136116877536
N           17.40412719305095       -1.40935297665321        0.04742466117458
C           15.94739571360283       -3.39111420494698       -0.08191488769783
C           15.93181645875376       -4.87668930918968       -0.11297420871410
C           16.40304163730184       -5.60505296396076        0.97906727065498
C           16.38378818695569       -6.99470455510866        0.95065236637952
O           16.83117868302901       -7.71298887906546        2.00982522218408
C           15.90045888582601       -7.66039369720959       -0.17683668487148
O           15.89774999506534       -9.03111297094874       -0.17850711902770
C           15.43438956394920       -6.93266020483435       -1.26856324339771
O           14.97988053824917       -7.65541024025322       -2.34077608465205
C           15.44359588521433       -5.54356446121730       -1.23949585880420
C           14.71675814223304       -2.73247530054313       -0.13753624180793
C           13.43349753966916       -3.37955318499465       -0.17790924749228
C           12.49401836606227       -2.40184437013224       -0.20797227790728
C           13.19330806855102       -1.14934295033533       -0.17755308591978
N           14.53893147867957       -1.37874917064034       -0.13220774197769
H           11.49699514949443        0.10610250716902       -0.21198059997840
H           11.46904053152398        2.71754669853400       -0.09873220429293
H           13.36237156660119        4.61735611174233        0.05937514241957
H           15.14916647628044        5.23247435475549       -1.83655240079183
H           15.18445955819879        8.78964538749224       -1.74431201229032
H           16.44737452291135        9.43701448776436        1.06188205043079
H           17.34942783509970        7.16161952247612        3.04160739380709
H           16.91083991512343        5.08418388889215        2.08634211499155
H           18.67555694143335        4.57091651682185        0.12767229133990
H           20.53973411420683        2.63940865308044        0.18091061882360
H           20.48922508474157       -2.61776807398509        0.09175595446937
H           18.58728259966628       -4.50870616145461       -0.04298190199437
H           16.76938804174976       -5.09847472963204        1.86262086641288
H           16.73558083284743       -8.65663375375587        1.79982642224041
H           15.53569986842975       -9.32736017793884       -1.02870514193036
H           14.68230571637995       -7.06890268469600       -3.04852605092652
H           15.09019024071124       -4.98326745197502       -2.09720223640717
H           13.27781635724515       -4.44647330588270       -0.17056854907880
H           11.42077537101678       -2.50559654125619       -0.24011427418919
Cu          29.43850125126906       -0.05676547865095       -0.01411743093442
C           32.83816846015581       -0.07125269587836       -0.21328336772635
C           32.20443496393666       -1.30274478044750       -0.28260108350005
C           32.88107980062281       -2.56364558386877       -0.38932104399882
C           31.92465153016715       -3.52456825410089       -0.41078273472703
C           30.65299785486845       -2.85826005700159       -0.32874243988139
N           30.85507454995829       -1.51060002283743       -0.24267523029502
C           29.41001325300622       -3.49571533888618       -0.31512979517074
C           29.39555836820217       -4.97582505159820       -0.43937702639731
C           29.89878353151341       -5.58834740118120       -1.58715844449706
C           29.87950760081574       -6.97331217270831       -1.70408937522484
O           30.35907396201557       -7.57844972088850       -2.81841980937847
C           29.36180717094515       -7.75160988922860       -0.66762058074233
O           29.35808007520608       -9.11479093273901       -0.80975583856714
C           28.86259497065975       -7.14015134479214        0.47945301061092
O           28.37424310970894       -7.96914498459041        1.45534661032108
C           28.87440066333543       -5.75578924316058        0.59645085153004
C           28.17855145810589       -2.84760745884269       -0.19693825537004
C           26.89962514702658       -3.49786949241425       -0.24631848214605
C           25.95540072760564       -2.53168136052471       -0.11515851771918
N           27.99178277476998       -1.49851064878670       -0.04843739799167
C           26.64886379848668       -1.28509799938988        0.00823617548044
C           26.01458443245411       -0.03844950763995        0.15025610334243
C           26.67260721228143        1.20000023005790        0.24701063482402
C           26.00378365429450        2.46000363447420        0.37351670999409
C           26.96629705804749        3.41559374053539        0.41889249977770
C           28.23191988668141        2.74415071145636        0.32623273296122
N           28.01905719438301        1.39500963816780        0.21764564854510
C           29.47481831088545        3.37977138377471        0.30987225771517
C           29.49005228275310        4.85898876824037        0.44855709197866
C           29.01586947707898        5.45900787778765        1.61501606367639
C           29.03330202310359        6.84297995354813        1.74382628113543
O           28.58163762585253        7.43654661694951        2.87593639918679
C           29.51930583603182        7.63244563484951        0.70042994392716
O           29.52079794828594        8.99448954720238        0.85416264257799
C           29.98908234633453        7.03321531587235       -0.46530207244635
O           30.44672348277381        7.87272918823390       -1.44732473217803
C           29.98015331526350        5.64981161725746       -0.59398900096470
C           30.70475867151750        2.73262069782103        0.16743221785149
C           31.98806844275986        3.38063321524269        0.18876270204762
C           32.92651236735824        2.41351535512611        0.03568178101977
C           32.22681923227972        1.16541488609032       -0.06999984727873
N           30.88187881729999        1.38731869913970        0.01539579137285
H           33.92223152366812       -0.07667049195409       -0.26282113926043
H           33.95211244790065       -2.68417437681204       -0.43324346067633
H           32.06167356106978       -4.59246548802403       -0.46624657034541
H           30.28881130775626       -4.99399179769973       -2.40331381573083
H           30.25663136842043       -8.53854128667907       -2.71147238477609
H           28.96728448254407       -9.49715405225727       -0.00796957628036
H           28.04492891089993       -7.45836214240272        2.20644596433970
H           28.49618070065853       -5.28738487084632        1.49756627142039
H           26.74603718618959       -4.55639371448419       -0.38073637904923
H           24.88288218387741       -2.64320092925788       -0.10826473174981
H           24.93388601676985        2.58762572033324        0.41607591810065
H           26.83429045882074        4.48264223683102        0.49592979461674
H           28.64851871403034        4.85567746393702        2.43512911448085
H           28.67617830946324        8.39799723699578        2.77404017610430
H           29.88762565533389        9.38545612511645        0.04530994095295
H           30.74799072479032        7.37001321588528       -2.21544292119116
H           30.33509519714624        5.19079746969543       -1.50932190095420
H           32.14503808052992        4.43951800961772        0.31806963601484
H           33.99940339553877        2.52097054898510        0.00388891362962
C           22.03649351716456       -0.00974781195994        0.19065037017728
C           20.81495994796454        0.00870950035714        0.17329863454735
C           23.38670024624890       -0.02012920046624        0.19126250131990
C           24.60826774066926       -0.02817172965801        0.17869597888494

          :  Hamiltonian                  GFN1-xTB          :
         :: total energy            -255.159347142613 Eh    ::
         :: gradient norm              0.000534151902 Eh/a0 ::
         :: HOMO-LUMO gap              0.000051961164 eV    ::
         :: SCC energy              -258.466186021116 Eh    ::
         :: repulsion energy           3.419722596540 Eh    ::

    * Orbital Energies and Occupations

         #    Occupation            Energy/Eh            Energy/eV
      -------------------------------------------------------------
         1        2.0000           -0.8115835             -22.0843
       ...           ...                  ...                  ...
       210        2.0000           -0.4097798             -11.1507
       211        2.0000           -0.4097098             -11.1488
       212        2.0000           -0.4081742             -11.1070
       213        2.0000           -0.4081575             -11.1065
       214        2.0000           -0.4079460             -11.1008
       215        2.0000           -0.4078488             -11.0981
       216        2.0000           -0.4078095             -11.0971
       217        2.0000           -0.4077586             -11.0957
       218        2.0000           -0.3951274             -10.7520
       219        2.0000           -0.3951101             -10.7515
       220        2.0000           -0.3912320             -10.6460
       221        2.0000           -0.3795386             -10.3278
       222        1.0005           -0.3554675              -9.6728 (HOMO)
       223        0.9995           -0.3554656              -9.6727 (LUMO)
       224                         -0.3374720              -9.1831
       225                         -0.3270773              -8.9002
       226                         -0.3270433              -8.8993
       227                         -0.3236177              -8.8061
       228                         -0.2964621              -8.0671
       229                         -0.2887802              -7.8581
       230                         -0.2570971              -6.9960
       231                         -0.2535727              -6.9001
       232                         -0.2532065              -6.8901
       233                         -0.2531641              -6.8889
       ...                                ...                  ...
       446                          1.5196334              41.3513
      -------------------------------------------------------------
                  HL-Gap            0.0000019 Eh            0.0001 eV

Wiberg/Mayer (AO) data.
largest (>0.10) Wiberg bond orders for each atom

     #   Z sym  total        # sym  WBO       # sym  WBO       # sym  WBO
 ---------------------------------------------------------------------------
     1  29 Cu   2.186 --     7 N    0.505    43 N    0.505    21 N    0.503
                            28 N    0.502
     2   6 C    3.929 --     3 C    1.362    42 C    1.360    44 H    0.971
     3   6 C    3.917 --     2 C    1.362     7 N    1.229     4 C    1.170
     4   6 C    3.955 --     5 C    1.656     3 C    1.170    45 H    0.976
     5   6 C    3.958 --     4 C    1.656     6 C    1.172    46 H    0.973
     6   6 C    3.912 --     8 C    1.321     7 N    1.238     5 C    1.172
     7   7 N    3.243 --     6 C    1.238     3 C    1.229     1 Cu   0.505
     8   6 C    3.935 --    18 C    1.327     6 C    1.321     9 C    1.025
     9   6 C    3.989 --    10 C    1.400    17 C    1.387     8 C    1.025
    10   6 C    3.977 --     9 C    1.400    11 C    1.380    47 H    0.970
    11   6 C    3.917 --    10 C    1.380    13 C    1.325    12 O    1.052
    12   8 O    2.048 --    11 C    1.052    48 H    0.848
    13   6 C    3.904 --    15 C    1.341    11 C    1.325    14 O    1.020
    14   8 O    2.020 --    13 C    1.020    49 H    0.846
    15   6 C    3.905 --    17 C    1.384    13 C    1.341    16 O    1.013
    16   8 O    2.024 --    15 C    1.013    50 H    0.861
    17   6 C    3.973 --     9 C    1.387    15 C    1.384    51 H    0.969
    18   6 C    3.908 --     8 C    1.327    21 N    1.222    19 C    1.180
    19   6 C    3.954 --    20 C    1.641    18 C    1.180    52 H    0.974
    20   6 C    3.956 --    19 C    1.641    22 C    1.188    53 H    0.974
    21   7 N    3.248 --    22 C    1.256    18 C    1.222     1 Cu   0.503
    22   6 C    3.898 --    23 C    1.260    21 N    1.256    20 C    1.188
    23   6 C    3.939 --    24 C    1.261    22 C    1.260   126 C    1.185
    24   6 C    3.898 --    23 C    1.261    28 N    1.257    25 C    1.186
    25   6 C    3.957 --    26 C    1.643    24 C    1.186    54 H    0.974
    26   6 C    3.954 --    25 C    1.643    27 C    1.179    55 H    0.973
    27   6 C    3.908 --    29 C    1.329    28 N    1.221    26 C    1.179
    28   7 N    3.248 --    24 C    1.257    27 C    1.221     1 Cu   0.502
    29   6 C    3.935 --    27 C    1.329    39 C    1.320    30 C    1.024
    30   6 C    3.989 --    31 C    1.400    38 C    1.388    29 C    1.024
    31   6 C    3.977 --    30 C    1.400    32 C    1.380    56 H    0.970
    32   6 C    3.917 --    31 C    1.380    34 C    1.325    33 O    1.052
    33   8 O    2.048 --    32 C    1.052    57 H    0.848
    34   6 C    3.905 --    36 C    1.341    32 C    1.325    35 O    1.020
    35   8 O    2.020 --    34 C    1.020    58 H    0.846
    36   6 C    3.905 --    38 C    1.384    34 C    1.341    37 O    1.013
    37   8 O    2.024 --    36 C    1.013    59 H    0.861
    38   6 C    3.973 --    30 C    1.388    36 C    1.384    60 H    0.970
    39   6 C    3.913 --    29 C    1.320    43 N    1.238    40 C    1.173
    40   6 C    3.958 --    41 C    1.654    39 C    1.173    61 H    0.974
    41   6 C    3.954 --    40 C    1.654    42 C    1.171    62 H    0.976
    42   6 C    3.917 --     2 C    1.360    43 N    1.230    41 C    1.171
    43   7 N    3.243 --    39 C    1.238    42 C    1.230     1 Cu   0.505
    44   1 H    1.002 --     2 C    0.971
    45   1 H    0.998 --     4 C    0.976
    46   1 H    1.005 --     5 C    0.973
    47   1 H    1.000 --    10 C    0.970
    48   1 H    0.878 --    12 O    0.848
    49   1 H    0.876 --    14 O    0.846
    50   1 H    0.881 --    16 O    0.861
    51   1 H    1.001 --    17 C    0.969
    52   1 H    1.006 --    19 C    0.974
    53   1 H    1.002 --    20 C    0.974
    54   1 H    1.002 --    25 C    0.974
    55   1 H    1.005 --    26 C    0.973
    56   1 H    1.000 --    31 C    0.970
    57   1 H    0.878 --    33 O    0.848
    58   1 H    0.876 --    35 O    0.846
    59   1 H    0.881 --    37 O    0.861
    60   1 H    1.001 --    38 C    0.970
    61   1 H    1.006 --    40 C    0.974
    62   1 H    0.998 --    41 C    0.976
    63  29 Cu   2.186 --    69 N    0.505   105 N    0.505    83 N    0.502
                            90 N    0.502
    64   6 C    3.929 --    65 C    1.362   104 C    1.360   106 H    0.971
    65   6 C    3.917 --    64 C    1.362    69 N    1.229    66 C    1.170
    66   6 C    3.955 --    67 C    1.656    65 C    1.170   107 H    0.976
    67   6 C    3.958 --    66 C    1.656    68 C    1.172   108 H    0.973
    68   6 C    3.912 --    70 C    1.321    69 N    1.238    67 C    1.172
    69   7 N    3.243 --    68 C    1.238    65 C    1.229    63 Cu   0.505
    70   6 C    3.935 --    80 C    1.326    68 C    1.321    71 C    1.026
    71   6 C    3.989 --    72 C    1.399    79 C    1.387    70 C    1.026
    72   6 C    3.977 --    71 C    1.399    73 C    1.380   109 H    0.970
    73   6 C    3.917 --    72 C    1.380    75 C    1.325    74 O    1.052
    74   8 O    2.047 --    73 C    1.052   110 H    0.848
    75   6 C    3.904 --    77 C    1.341    73 C    1.325    76 O    1.020
    76   8 O    2.020 --    75 C    1.020   111 H    0.846
    77   6 C    3.905 --    79 C    1.384    75 C    1.341    78 O    1.013
    78   8 O    2.024 --    77 C    1.013   112 H    0.861
    79   6 C    3.973 --    71 C    1.387    77 C    1.384   113 H    0.969
    80   6 C    3.908 --    70 C    1.326    83 N    1.222    81 C    1.180
    81   6 C    3.954 --    82 C    1.641    80 C    1.180   114 H    0.973
    82   6 C    3.956 --    81 C    1.641    84 C    1.188   115 H    0.974
    83   7 N    3.248 --    84 C    1.256    80 C    1.222    63 Cu   0.502
    84   6 C    3.898 --    85 C    1.260    83 N    1.256    82 C    1.188
    85   6 C    3.939 --    86 C    1.261    84 C    1.260   128 C    1.185
    86   6 C    3.898 --    85 C    1.261    90 N    1.257    87 C    1.186
    87   6 C    3.957 --    88 C    1.643    86 C    1.186   116 H    0.974
    88   6 C    3.954 --    87 C    1.643    89 C    1.179   117 H    0.973
    89   6 C    3.908 --    91 C    1.328    90 N    1.221    88 C    1.179
    90   7 N    3.248 --    86 C    1.257    89 C    1.221    63 Cu   0.502
    91   6 C    3.935 --    89 C    1.328   101 C    1.320    92 C    1.025
    92   6 C    3.989 --    93 C    1.400   100 C    1.388    91 C    1.025
    93   6 C    3.977 --    92 C    1.400    94 C    1.380   118 H    0.970
    94   6 C    3.917 --    93 C    1.380    96 C    1.325    95 O    1.052
    95   8 O    2.047 --    94 C    1.052   119 H    0.848
    96   6 C    3.904 --    98 C    1.341    94 C    1.325    97 O    1.020
    97   8 O    2.020 --    96 C    1.020   120 H    0.846
    98   6 C    3.905 --   100 C    1.384    96 C    1.341    99 O    1.013
    99   8 O    2.024 --    98 C    1.013   121 H    0.861
   100   6 C    3.973 --    92 C    1.388    98 C    1.384   122 H    0.969
   101   6 C    3.913 --    91 C    1.320   105 N    1.239   102 C    1.173
   102   6 C    3.958 --   103 C    1.654   101 C    1.173   123 H    0.974
   103   6 C    3.954 --   102 C    1.654   104 C    1.172   124 H    0.976
   104   6 C    3.917 --    64 C    1.360   105 N    1.230   103 C    1.172
   105   7 N    3.243 --   101 C    1.239   104 C    1.230    63 Cu   0.505
   106   1 H    1.002 --    64 C    0.971
   107   1 H    0.998 --    66 C    0.976
   108   1 H    1.005 --    67 C    0.973
   109   1 H    1.000 --    72 C    0.970
   110   1 H    0.878 --    74 O    0.848
   111   1 H    0.876 --    76 O    0.846
   112   1 H    0.881 --    78 O    0.861
   113   1 H    1.001 --    79 C    0.969
   114   1 H    1.006 --    81 C    0.973
   115   1 H    1.002 --    82 C    0.974
   116   1 H    1.002 --    87 C    0.974
   117   1 H    1.005 --    88 C    0.973
   118   1 H    1.000 --    93 C    0.970
   119   1 H    0.878 --    95 O    0.848
   120   1 H    0.876 --    97 O    0.846
   121   1 H    0.881 --    99 O    0.861
   122   1 H    1.001 --   100 C    0.969
   123   1 H    1.006 --   102 C    0.974
   124   1 H    0.998 --   103 C    0.976
   125   6 C    3.936 --   126 C    2.481   127 C    1.305
   126   6 C    3.927 --   125 C    2.481    23 C    1.185   128 C    0.200
   127   6 C    3.936 --   128 C    2.481   125 C    1.305
   128   6 C    3.927 --   127 C    2.481    85 C    1.185   126 C    0.200
 ---------------------------------------------------------------------------

           -------------------------------------------------
          | TOTAL ENERGY             -255.159347142613 Eh   |
          | GRADIENT NORM               0.000534151902 Eh/α |
          | HOMO-LUMO GAP               0.000051961164 eV   |
           -------------------------------------------------

 * finished run on 2022/07/30 at 09:30:25.223
