   * xtb version 6.5.1 (b24c23e) compiled by 'conda@728c89f4b128' on 2022-07-12
          program call               : xtb Cu_Ph_C4_3.xyz --gfn 1 --opt -T 48

   ID    Z sym.   atoms
    1   29 Cu     1, 57, 121
    2    6 C      2-6, 8-11, 13-29, 32-37, 58-62, 64-67, 69-85, 88-93,
                  113-120, 122-126, 128-131, 133-149, 152-157
    3    7 N      7, 12, 30, 31, 63, 68, 86, 87, 127, 132, 150, 151
    4    1 H      38-56, 94-112, 158-175

          :  Hamiltonian                  GFN1-xTB          :
 * total energy  :  -300.8397164 Eh     change       -0.3233822E-09 Eh
 * total energy  :  -301.1975023 Eh     change       -0.3577859E+00 Eh
 * total energy  :  -301.3298874 Eh     change       -0.1323851E+00 Eh
 * total energy  :  -301.4071726 Eh     change       -0.7728520E-01 Eh
 * total energy  :  -301.4737132 Eh     change       -0.6654057E-01 Eh
 * total energy  :  -301.5159309 Eh     change       -0.4221776E-01 Eh
 * total energy  :  -301.5386573 Eh     change       -0.2272632E-01 Eh
 * total energy  :  -301.5551343 Eh     change       -0.1647705E-01 Eh
 * total energy  :  -301.5650131 Eh     change       -0.9878812E-02 Eh
 * total energy  :  -301.5751915 Eh     change       -0.1017842E-01 Eh
 * total energy  :  -301.6517812 Eh     change       -0.3850555E-04 Eh
 * total energy  :  -301.6518224 Eh     change       -0.4112386E-04 Eh
 * total energy  :  -301.6518515 Eh     change       -0.2917458E-04 Eh
 * total energy  :  -301.6518722 Eh     change       -0.2063448E-04 Eh
 * total energy  :  -301.6519006 Eh     change       -0.2837630E-04 Eh
 * total energy  :  -301.6519108 Eh     change       -0.1026291E-04 Eh
 * total energy  :  -301.6519179 Eh     change       -0.7114080E-05 Eh
 * total energy  :  -301.6519243 Eh     change       -0.6349688E-05 Eh
 * total energy  :  -301.6519287 Eh     change       -0.4380368E-05 Eh
   *** GEOMETRY OPTIMIZATION CONVERGED AFTER 57 ITERATIONS ***

 final structure:
================
175
 xtb: 6.5.1 (b24c23e)
Cu          28.83204472920412       -0.01290915495945        0.00608310272009
C           25.42465362797683       -0.04210143960777       -0.02369909750991
C           26.06001397793798       -1.27300518820099       -0.08984050540036
C           25.38501374027853       -2.53844588509354       -0.13730173552996
C           26.34405838950138       -3.49653711268459       -0.17309642107989
C           27.61469608996378       -2.82400051445938       -0.15645820228301
N           27.41068578300919       -1.47515920952747       -0.09993512751021
C           28.85902041382046       -3.45813708550387       -0.16408863502201
C           30.09190955577843       -2.80575369524793       -0.10949357330212
C           31.36904831087983       -3.45901686089749       -0.16129076162020
C           32.31581317781146       -2.48812783883321       -0.10568382315484
N           30.28151339051640       -1.45088978473748       -0.03342819484316
C           31.62539855669965       -1.23592784342493       -0.02729871021148
C           32.26206203360397        0.01671557198755        0.02608690865332
C           31.60326136452630        1.25788188656174        0.07751244732221
C           32.27092447985358        2.52444277175563        0.10001559584134
C           31.30688992999252        3.47898502261665        0.14223582062194
C           30.04201856719479        2.80045833967161        0.15341552316244
C           28.79734802853080        3.43214005131978        0.18406903526881
C           28.78295049858171        4.91481120854252        0.26567036792091
C           28.23061076890630        5.67533445375750       -0.76561782984548
C           28.21964624333219        7.05999442859862       -0.68735153296738
C           28.75449184660198        7.70096293317264        0.42187159770110
C           29.30341213155589        6.95110491518282        1.45323659389538
C           29.32063516774010        5.56650215244591        1.37622259210950
C           27.56435229812097        2.77715449158460        0.14435355662795
C           26.28195695608447        3.42312602638485        0.21759240849395
C           25.34033917190380        2.44928063903591        0.15410388137685
C           26.03787256815576        1.19951416274761        0.05155001122865
N           27.38464188537749        1.42669114766332        0.05319336866728
N           30.25587114820078        1.44800307504651        0.10397403996920
C           28.87054537117365       -4.94151309913651       -0.23799864265480
C           28.36310973068445       -5.59663975619042       -1.36062532396195
C           28.37678184975372       -6.98170319072276       -1.42997266770511
C           28.89113195870580       -7.72824630375002       -0.37858960086150
C           29.39459052075681       -7.08365228778248        0.74313796983555
C           29.38784434346661       -5.69854946143847        0.81362071838658
H           24.33953004214821       -0.05206860127698       -0.01980780760489
H           24.31353388576403       -2.66312798285336       -0.13573891467262
H           26.21073860324396       -4.56617704113509       -0.19694114228359
H           31.51780331258599       -4.52357432845257       -0.24294211833319
H           33.38820646980661       -2.59985623549742       -0.12205488136257
H           33.34089003832954        2.65685972189615        0.07943468284682
H           31.43654499086798        4.54911289301071        0.15143798872322
H           27.82318918722283        5.17682409955302       -1.63821376267675
H           27.79228015654383        7.64124921743560       -1.49698600496748
H           28.74354199577365        8.78338623339102        0.48249704848245
H           29.71980218810726        7.44677354942893        2.32323915398148
H           29.73924527655720        4.98180271592023        2.18787695111377
H           26.12915128983845        4.48576286381468        0.31707227553888
H           24.26696173283328        2.55307913320619        0.18071445817390
H           27.97124747618301       -5.01455616091409       -2.18740132578238
H           27.98500250588952       -7.48026623632462       -2.30979903487489
H           28.89930658147304       -8.81099082599107       -0.43328569677569
H           29.79458785213155       -7.66235988468370        1.56841227447549
H           29.77170124657762       -5.19673045807424        1.69497544217558
Cu          55.78048339920702        0.05256167324453        0.02107060579601
C           59.18737963367870        0.07779720520475       -0.03214167363926
C           58.55360166859987        1.31125435250399       -0.04082541866653
C           59.23063527898528        2.57648117175095       -0.03909066513392
C           58.27318491678803        3.53674918417649       -0.02760237921791
C           57.00141053049249        2.86617026517177       -0.03072269148051
N           57.20324815611927        1.51580090743357       -0.03277442495320
C           55.75835692227800        3.50235659495750       -0.00312465322826
C           54.52466478685120        2.85025128838256        0.03384404772828
C           53.24824059270939        3.50683613803753        0.01917742116050
C           52.30031190026076        2.53575526663860        0.04166602578718
N           54.33336356227795        1.49367055770650        0.05481438071249
C           52.98924928219398        1.28044627670606        0.06215795279932
C           52.35116266866633        0.02740837823427        0.06642572566966
C           53.00814855264446       -1.21575272077768        0.05796045304410
C           52.33813202320767       -2.48090399738401        0.02792972998685
C           53.30051784319898       -3.43799989996460        0.01952228336977
C           54.56682575339610       -2.76286906271257        0.05242105730010
C           55.81041111007971       -3.39748163846719        0.04539255604714
C           55.82266321334933       -4.88234787130248        0.05763616651920
C           56.36867820299018       -5.59426847047908       -1.01109163176634
C           56.37739728437035       -6.98109764585770       -0.99850170010663
C           55.84652994706666       -7.67296177438318        0.08167537426164
C           55.30410116590580       -6.97177047057125        1.15005647146326
C           55.28921564075856       -5.58503252290874        1.13877241552361
C           57.04435407357643       -2.74323718300181        0.02697260680341
C           58.32613316190518       -3.39359905453232        0.06302479109225
C           59.26895135479479       -2.41919873722754        0.03634517900082
C           58.57283551195653       -1.16517287493860       -0.00643920057328
N           57.22576884692418       -1.39035437275180       -0.00549829957896
N           54.35533320072421       -1.40913758428309        0.06601810654766
C           55.74955474771695        4.98749241126224       -0.01702264677822
C           56.25259832070137        5.68600028957614       -1.11524904104125
C           56.24212588903439        7.07273913068304       -1.12899129389753
C           55.73525271167857        7.77775497861755       -0.04578748423740
C           55.23593893796307        7.08986433025390        1.05180309761440
C           55.23961004611844        5.70302705647884        1.06675856136703
H           60.27251701888078        0.08630803818200       -0.03565279078459
H           60.30233158740023        2.69925216469139       -0.03965954510063
H           58.40837542544168        4.60620640369755       -0.00670110772667
H           53.10050643869586        4.57405308106910       -0.01695994563202
H           51.22801567305402        2.64960774195682        0.03822555409394
H           51.26777611563644       -2.61038322090585        0.00906689983424
H           53.16872235521726       -4.50720131241255       -0.01922058125619
H           56.77286818998311       -5.05580307378755       -1.86116591999316
H           56.79979753579227       -7.52407917192232       -1.83681274901087
H           55.85553557395333       -8.75707448972243        0.09089471664623
H           54.89092321789321       -7.50737233152315        1.99764052647107
H           54.87579437251659       -5.03879626567569        1.97936554378695
H           58.47787246553183       -4.45978962286666        0.11466013813272
H           60.34230534263381       -2.52557771965554        0.05117433996351
H           56.63854994048998        5.13664772914329       -1.96683444801493
H           56.63062337219493        7.60521111004320       -1.99019946610550
H           55.72968441369717        8.86183489817294       -0.05694579155311
H           54.84171378642895        7.63597241449255        1.90170386810238
H           54.85920228806343        5.16730189999937        1.92943830126473
C           34.89059985864134        0.03468249300723        0.00716784388321
C           33.66860403195579        0.02866032403729        0.01630966549853
C           36.24072707160285        0.03905492123413        0.00013389151438
C           37.46284802130061        0.03967464143123       -0.00748344918566
C           48.37243128294323        0.01351311303172        0.06190470602346
C           47.15032240722135        0.01409181790492        0.05118706737690
C           49.72255533063977        0.01556331506206        0.06631367521813
C           50.94457414714722        0.01820901462127        0.06523170711575
Cu          42.30683113849869        0.02723582347134        0.00985807337937
C           38.86884124548656        0.03678575435479       -0.00852337158202
C           39.51450531680273       -1.21285472731121       -0.01826169615808
C           38.83369123275254       -2.47233905885553        0.00804642290390
C           39.78798107662706       -3.43766212133756       -0.00888683534792
C           41.05877180157228       -2.77227028304667       -0.05296864261840
N           40.85903242174705       -1.41724411906430       -0.05413589058689
C           42.29765734980186       -3.41589585850153       -0.06453119527763
C           43.53993520642592       -2.77896514031764       -0.04768678210465
C           44.80731942731898       -3.44854621509498       -0.11768357891261
C           45.76673193630086       -2.48853197053953       -0.08856705075311
N           43.74666811959327       -1.42636396347090        0.01325572528950
C           45.09240403654400       -1.22787474951845       -0.00873451285457
C           45.74438915768376        0.01745619490475        0.03982738818710
C           45.09861672468053        1.26657882043344        0.07626540533261
C           45.77845364517570        2.52333565413208        0.16862681205114
C           44.82413209050797        3.48880602254407        0.17981092056060
C           43.55448860192248        2.82652685628007        0.08620756088451
C           42.31569086854876        3.47057851885042        0.08074029784754
C           42.32012757931472        4.95539646111509        0.11253023273854
C           41.76478989206845        5.64069471604323        1.19363473751523
C           41.77388394139191        7.02717604107649        1.22391840809347
C           42.33095934572838        7.74475822200618        0.17415287296385
C           42.88240346802331        7.06991477893527       -0.90650324745941
C           42.88072208845618        5.68342561817136       -0.93749372851125
C           41.07353900960983        2.83390097589481        0.05001771222314
C           39.80712782595553        3.50604348476022       -0.01279123567759
C           38.84769392703585        2.54590151401761       -0.03663264465404
C           39.52117786333977        1.28290152195091        0.00252407432720
N           40.86631682745351        1.47996173843954        0.05241960718424
N           43.75466674555241        1.47274757216385        0.02932699476076
C           42.29331835218704       -4.90081890196356       -0.09455102129635
C           41.75509669817667       -5.58451054696354       -1.18527810378798
C           41.75331693240262       -6.97109812069168       -1.21158956077285
C           42.28218348397716       -7.69025868362093       -0.14833949473536
C           42.81698153172458       -7.01693587810358        0.94157366951121
C           42.82628245321478       -5.63038776736367        0.96869538756354
H           37.76268581148116       -2.59285963907822        0.04285624083036
H           39.64798847158215       -4.50616847843894        0.01930618634134
H           44.94179407690490       -4.51549275152233       -0.19296469566659
H           46.83721604572060       -2.61307581219474       -0.12551284216960
H           46.84869695851285        2.64209839485401        0.22567476274775
H           44.96357368470643        4.55488333300643        0.25795815350273
H           41.33922861296772        5.08114338250643        2.01926394263480
H           41.34471007759688        7.54956619481402        2.07178355567500
H           42.33539758833676        8.82861465616752        0.19823565097321
H           43.31593499641144        7.62589142767482       -1.73044679566023
H           43.30227816003784        5.15757534464182       -1.78698860156924
H           39.67342749260028        4.57515324343921       -0.04770634987955
H           37.77785810767480        2.67198244205364       -0.08515162166210
H           41.35113902119625       -5.02374624162349       -2.02091455474618
H           41.33737401276948       -7.49239941317104       -2.06668957805907
H           42.27752820597078       -8.77418131736390       -0.16909047678173
H           43.22845924623880       -7.57408131143945        1.77600273313357
H           43.23446252342718       -5.10558636523970        1.82536238379511

          :  Hamiltonian                  GFN1-xTB          :
         :: total energy            -301.651928659889 Eh    ::
         :: gradient norm              0.000486107888 Eh/a0 ::
         :: HOMO-LUMO gap              0.000026065052 eV    ::
         :: SCC energy              -306.559908855345 Eh    ::
         :: repulsion energy           5.067335148676 Eh    ::

    * Orbital Energies and Occupations

         #    Occupation            Energy/Eh            Energy/eV
      -------------------------------------------------------------
         1        2.0000           -0.7635711             -20.7778
       ...           ...                  ...                  ...
       271        2.0000           -0.4079920             -11.1020
       272        2.0000           -0.4079567             -11.1011
       273        2.0000           -0.4076559             -11.0929
       274        2.0000           -0.4074197             -11.0865
       275        2.0000           -0.4071262             -11.0785
       276        2.0000           -0.3950233             -10.7491
       277        2.0000           -0.3950151             -10.7489
       278        2.0000           -0.3947798             -10.7425
       279        2.0000           -0.3932004             -10.6995
       280        2.0000           -0.3856290             -10.4935
       281        2.0000           -0.3766470             -10.2491
       282        1.0155           -0.3554988              -9.6736
       283        0.9925           -0.3554495              -9.6723 (HOMO)
       284        0.9920           -0.3554486              -9.6722 (LUMO)
       285        0.0000           -0.3408453              -9.2749
       286                         -0.3310097              -9.0072
       287                         -0.3270369              -8.8991
       288                         -0.3270340              -8.8990
       289                         -0.3266291              -8.8880
       290                         -0.3221813              -8.7670
       291                         -0.3002839              -8.1711
       292                         -0.2924991              -7.9593
       293                         -0.2887221              -7.8565
       294                         -0.2639145              -7.1815
       ...                                ...                  ...
       603                          1.5185015              41.3205
      -------------------------------------------------------------
                  HL-Gap            0.0000010 Eh            0.0000 eV

Wiberg/Mayer (AO) data.
largest (>0.10) Wiberg bond orders for each atom

     #   Z sym  total        # sym  WBO       # sym  WBO       # sym  WBO
 ---------------------------------------------------------------------------
     1  29 Cu   2.191 --    30 N    0.506     7 N    0.506    12 N    0.504
                            31 N    0.504
     2   6 C    3.929 --     3 C    1.361    29 C    1.361    38 H    0.971
     3   6 C    3.917 --     2 C    1.361     7 N    1.229     4 C    1.171
     4   6 C    3.955 --     5 C    1.655     3 C    1.171    39 H    0.976
     5   6 C    3.958 --     4 C    1.655     6 C    1.173    40 H    0.973
     6   6 C    3.913 --     8 C    1.320     7 N    1.238     5 C    1.173
     7   7 N    3.244 --     6 C    1.238     3 C    1.229     1 Cu   0.506
     8   6 C    3.935 --     9 C    1.328     6 C    1.320    32 C    1.024
     9   6 C    3.908 --     8 C    1.328    12 N    1.221    10 C    1.180
    10   6 C    3.954 --    11 C    1.642     9 C    1.180    41 H    0.973
    11   6 C    3.956 --    10 C    1.642    13 C    1.187    42 H    0.974
    12   7 N    3.248 --    13 C    1.257     9 C    1.221     1 Cu   0.504
    13   6 C    3.898 --    14 C    1.260    12 N    1.257    11 C    1.187
    14   6 C    3.938 --    15 C    1.260    13 C    1.260   114 C    1.186
    15   6 C    3.898 --    14 C    1.260    31 N    1.256    16 C    1.187
    16   6 C    3.956 --    17 C    1.642    15 C    1.187    43 H    0.974
    17   6 C    3.954 --    16 C    1.642    18 C    1.180    44 H    0.973
    18   6 C    3.908 --    19 C    1.327    31 N    1.221    17 C    1.180
    19   6 C    3.935 --    18 C    1.327    26 C    1.320    20 C    1.025
    20   6 C    3.988 --    21 C    1.396    25 C    1.396    19 C    1.025
                            23 C    0.108
    21   6 C    3.988 --    22 C    1.447    20 C    1.396    45 H    0.973
                            24 C    0.110
    22   6 C    3.995 --    21 C    1.447    23 C    1.438    46 H    0.973
                            25 C    0.110
    23   6 C    3.990 --    22 C    1.438    24 C    1.438    47 H    0.974
                            20 C    0.108
    24   6 C    3.995 --    25 C    1.447    23 C    1.438    48 H    0.973
                            21 C    0.110
    25   6 C    3.988 --    24 C    1.447    20 C    1.396    49 H    0.973
                            22 C    0.110
    26   6 C    3.913 --    19 C    1.320    30 N    1.238    27 C    1.173
    27   6 C    3.958 --    28 C    1.655    26 C    1.173    50 H    0.973
    28   6 C    3.955 --    27 C    1.655    29 C    1.171    51 H    0.976
    29   6 C    3.917 --     2 C    1.361    30 N    1.229    28 C    1.171
    30   7 N    3.244 --    26 C    1.238    29 C    1.229     1 Cu   0.506
    31   7 N    3.248 --    15 C    1.256    18 C    1.221     1 Cu   0.504
    32   6 C    3.988 --    37 C    1.397    33 C    1.396     8 C    1.024
                            35 C    0.108
    33   6 C    3.988 --    34 C    1.447    32 C    1.396    52 H    0.973
                            36 C    0.110
    34   6 C    3.995 --    33 C    1.447    35 C    1.438    53 H    0.973
                            37 C    0.110
    35   6 C    3.991 --    36 C    1.438    34 C    1.438    54 H    0.974
                            32 C    0.108
    36   6 C    3.995 --    37 C    1.447    35 C    1.438    55 H    0.973
                            33 C    0.110
    37   6 C    3.988 --    36 C    1.447    32 C    1.397    56 H    0.973
                            34 C    0.110
    38   1 H    1.002 --     2 C    0.971
    39   1 H    0.998 --     4 C    0.976
    40   1 H    1.005 --     5 C    0.973
    41   1 H    1.005 --    10 C    0.973
    42   1 H    1.002 --    11 C    0.974
    43   1 H    1.002 --    16 C    0.974
    44   1 H    1.005 --    17 C    0.973
    45   1 H    1.005 --    21 C    0.973
    46   1 H    1.003 --    22 C    0.973
    47   1 H    1.003 --    23 C    0.974
    48   1 H    1.003 --    24 C    0.973
    49   1 H    1.005 --    25 C    0.973
    50   1 H    1.005 --    27 C    0.973
    51   1 H    0.998 --    28 C    0.976
    52   1 H    1.005 --    33 C    0.973
    53   1 H    1.003 --    34 C    0.973
    54   1 H    1.003 --    35 C    0.974
    55   1 H    1.003 --    36 C    0.973
    56   1 H    1.005 --    37 C    0.973
    57  29 Cu   2.191 --    63 N    0.506    86 N    0.506    87 N    0.504
                            68 N    0.504
    58   6 C    3.929 --    59 C    1.361    85 C    1.361    94 H    0.971
    59   6 C    3.917 --    58 C    1.361    63 N    1.229    60 C    1.171
    60   6 C    3.955 --    61 C    1.655    59 C    1.171    95 H    0.976
    61   6 C    3.958 --    60 C    1.655    62 C    1.173    96 H    0.973
    62   6 C    3.913 --    64 C    1.320    63 N    1.238    61 C    1.173
    63   7 N    3.244 --    62 C    1.238    59 C    1.229    57 Cu   0.506
    64   6 C    3.935 --    65 C    1.328    62 C    1.320    88 C    1.024
    65   6 C    3.908 --    64 C    1.328    68 N    1.221    66 C    1.180
    66   6 C    3.954 --    67 C    1.642    65 C    1.180    97 H    0.973
    67   6 C    3.956 --    66 C    1.642    69 C    1.187    98 H    0.974
    68   7 N    3.248 --    69 C    1.257    65 C    1.221    57 Cu   0.504
    69   6 C    3.898 --    70 C    1.260    68 N    1.257    67 C    1.187
    70   6 C    3.938 --    71 C    1.260    69 C    1.260   120 C    1.186
    71   6 C    3.898 --    70 C    1.260    87 N    1.256    72 C    1.187
    72   6 C    3.956 --    73 C    1.642    71 C    1.187    99 H    0.974
    73   6 C    3.954 --    72 C    1.642    74 C    1.180   100 H    0.973
    74   6 C    3.908 --    75 C    1.327    87 N    1.221    73 C    1.180
    75   6 C    3.935 --    74 C    1.327    82 C    1.320    76 C    1.025
    76   6 C    3.988 --    77 C    1.396    81 C    1.396    75 C    1.025
                            79 C    0.108
    77   6 C    3.988 --    78 C    1.447    76 C    1.396   101 H    0.973
                            80 C    0.110
    78   6 C    3.995 --    77 C    1.447    79 C    1.438   102 H    0.973
                            81 C    0.110
    79   6 C    3.990 --    78 C    1.438    80 C    1.438   103 H    0.974
                            76 C    0.108
    80   6 C    3.995 --    81 C    1.447    79 C    1.438   104 H    0.973
                            77 C    0.110
    81   6 C    3.988 --    80 C    1.447    76 C    1.396   105 H    0.973
                            78 C    0.110
    82   6 C    3.913 --    75 C    1.320    86 N    1.238    83 C    1.173
    83   6 C    3.958 --    84 C    1.655    82 C    1.173   106 H    0.973
    84   6 C    3.955 --    83 C    1.655    85 C    1.171   107 H    0.976
    85   6 C    3.917 --    58 C    1.361    86 N    1.229    84 C    1.171
    86   7 N    3.244 --    82 C    1.238    85 C    1.229    57 Cu   0.506
    87   7 N    3.248 --    71 C    1.256    74 C    1.221    57 Cu   0.504
    88   6 C    3.988 --    93 C    1.397    89 C    1.396    64 C    1.024
                            91 C    0.108
    89   6 C    3.988 --    90 C    1.447    88 C    1.396   108 H    0.973
                            92 C    0.110
    90   6 C    3.995 --    89 C    1.447    91 C    1.438   109 H    0.973
                            93 C    0.110
    91   6 C    3.991 --    92 C    1.438    90 C    1.438   110 H    0.974
                            88 C    0.108
    92   6 C    3.995 --    93 C    1.447    91 C    1.438   111 H    0.973
                            89 C    0.110
    93   6 C    3.988 --    92 C    1.447    88 C    1.397   112 H    0.973
                            90 C    0.110
    94   1 H    1.002 --    58 C    0.971
    95   1 H    0.998 --    60 C    0.976
    96   1 H    1.005 --    61 C    0.973
    97   1 H    1.005 --    66 C    0.973
    98   1 H    1.002 --    67 C    0.974
    99   1 H    1.002 --    72 C    0.974
   100   1 H    1.005 --    73 C    0.973
   101   1 H    1.005 --    77 C    0.973
   102   1 H    1.003 --    78 C    0.973
   103   1 H    1.003 --    79 C    0.974
   104   1 H    1.003 --    80 C    0.973
   105   1 H    1.005 --    81 C    0.973
   106   1 H    1.005 --    83 C    0.973
   107   1 H    0.998 --    84 C    0.976
   108   1 H    1.005 --    89 C    0.973
   109   1 H    1.003 --    90 C    0.973
   110   1 H    1.003 --    91 C    0.974
   111   1 H    1.003 --    92 C    0.973
   112   1 H    1.005 --    93 C    0.973
   113   6 C    3.936 --   114 C    2.479   115 C    1.307
   114   6 C    3.925 --   113 C    2.479    14 C    1.186   116 C    0.199
   115   6 C    3.933 --   116 C    2.477   113 C    1.307
   116   6 C    3.926 --   115 C    2.477   122 C    1.189   114 C    0.199
   117   6 C    3.933 --   118 C    2.477   119 C    1.307
   118   6 C    3.926 --   117 C    2.477   134 C    1.189   120 C    0.199
   119   6 C    3.936 --   120 C    2.479   117 C    1.307
   120   6 C    3.925 --   119 C    2.479    70 C    1.186   118 C    0.199
   121  29 Cu   2.164 --   151 N    0.499   132 N    0.499   127 N    0.499
                           150 N    0.499
   122   6 C    3.927 --   123 C    1.257   149 C    1.257   116 C    1.189
   123   6 C    3.899 --   127 N    1.259   122 C    1.257   124 C    1.188
   124   6 C    3.955 --   125 C    1.640   123 C    1.188   158 H    0.974
   125   6 C    3.955 --   124 C    1.640   126 C    1.181   159 H    0.973
   126   6 C    3.906 --   128 C    1.324   127 N    1.222   125 C    1.181
   127   7 N    3.241 --   123 C    1.259   126 C    1.222   121 Cu   0.499
   128   6 C    3.930 --   126 C    1.324   129 C    1.324   152 C    1.025
   129   6 C    3.906 --   128 C    1.324   132 N    1.222   130 C    1.181
   130   6 C    3.955 --   131 C    1.640   129 C    1.181   160 H    0.973
   131   6 C    3.955 --   130 C    1.640   133 C    1.188   161 H    0.974
   132   7 N    3.241 --   133 C    1.259   129 C    1.222   121 Cu   0.499
   133   6 C    3.899 --   132 N    1.259   134 C    1.257   131 C    1.188
   134   6 C    3.927 --   133 C    1.257   135 C    1.257   118 C    1.189
   135   6 C    3.899 --   151 N    1.259   134 C    1.257   136 C    1.188
   136   6 C    3.955 --   137 C    1.640   135 C    1.188   162 H    0.974
   137   6 C    3.955 --   136 C    1.640   138 C    1.181   163 H    0.973
   138   6 C    3.907 --   139 C    1.324   151 N    1.222   137 C    1.181
   139   6 C    3.930 --   146 C    1.324   138 C    1.324   140 C    1.025
   140   6 C    3.988 --   141 C    1.396   145 C    1.396   139 C    1.025
                           143 C    0.108
   141   6 C    3.988 --   142 C    1.447   140 C    1.396   164 H    0.973
                           144 C    0.110
   142   6 C    3.995 --   141 C    1.447   143 C    1.438   165 H    0.973
                           145 C    0.110
   143   6 C    3.990 --   142 C    1.438   144 C    1.438   166 H    0.974
                           140 C    0.108
   144   6 C    3.995 --   145 C    1.447   143 C    1.438   167 H    0.973
                           141 C    0.110
   145   6 C    3.988 --   144 C    1.447   140 C    1.396   168 H    0.973
                           142 C    0.110
   146   6 C    3.907 --   139 C    1.324   150 N    1.222   147 C    1.181
   147   6 C    3.955 --   148 C    1.640   146 C    1.181   169 H    0.973
   148   6 C    3.955 --   147 C    1.640   149 C    1.188   170 H    0.974
   149   6 C    3.899 --   150 N    1.259   122 C    1.257   148 C    1.188
   150   7 N    3.241 --   149 C    1.259   146 C    1.222   121 Cu   0.499
   151   7 N    3.241 --   135 C    1.259   138 C    1.222   121 Cu   0.499
   152   6 C    3.988 --   157 C    1.396   153 C    1.396   128 C    1.025
                           155 C    0.108
   153   6 C    3.988 --   154 C    1.447   152 C    1.396   171 H    0.973
                           156 C    0.110
   154   6 C    3.995 --   153 C    1.447   155 C    1.438   172 H    0.973
                           157 C    0.110
   155   6 C    3.990 --   156 C    1.438   154 C    1.438   173 H    0.974
                           152 C    0.108
   156   6 C    3.995 --   157 C    1.447   155 C    1.438   174 H    0.973
                           153 C    0.110
   157   6 C    3.988 --   156 C    1.447   152 C    1.396   175 H    0.973
                           154 C    0.110
   158   1 H    1.002 --   124 C    0.974
   159   1 H    1.005 --   125 C    0.973
   160   1 H    1.005 --   130 C    0.973
   161   1 H    1.002 --   131 C    0.974
   162   1 H    1.002 --   136 C    0.974
   163   1 H    1.005 --   137 C    0.973
   164   1 H    1.005 --   141 C    0.973
   165   1 H    1.003 --   142 C    0.973
   166   1 H    1.003 --   143 C    0.974
   167   1 H    1.003 --   144 C    0.973
   168   1 H    1.005 --   145 C    0.973
   169   1 H    1.005 --   147 C    0.973
   170   1 H    1.002 --   148 C    0.974
   171   1 H    1.005 --   153 C    0.973
   172   1 H    1.003 --   154 C    0.973
   173   1 H    1.003 --   155 C    0.974
   174   1 H    1.003 --   156 C    0.973
   175   1 H    1.005 --   157 C    0.973
 ---------------------------------------------------------------------------

           -------------------------------------------------
          | TOTAL ENERGY             -301.651928659889 Eh   |
          | GRADIENT NORM               0.000486107888 Eh/α |
          | HOMO-LUMO GAP               0.000026065052 eV   |
           -------------------------------------------------

 * finished run on 2022/07/30 at 08:46:55.493
