   * xtb version 6.5.1 (b24c23e) compiled by 'conda@728c89f4b128' on 2022-07-12
          program call               : xtb Ni_PhNH2_C6_3.xyz --gfn 1 --opt -T 48

   ID    Z sym.   atoms
    1   28 Ni     1, 61, 133
    2    6 C      2-6, 8-12, 14-18, 20-25, 27-31, 33-38, 62-66, 68-72, 74-78,
                  80-85, 87-91, 93-98, 121-132, 134-138, 140-144, 146-150,
                  152-157, 159-163, 165-170
    3    7 N      7, 13, 19, 26, 32, 39, 67, 73, 79, 86, 92, 99, 139, 145,
                  151, 158, 164, 171
    4    1 H      40-60, 100-120, 172-191

          :  Hamiltonian                  GFN1-xTB          :
 * total energy  :  -330.7443741 Eh     change       -0.2544141E-08 Eh
 * total energy  :  -330.9873348 Eh     change       -0.2429607E+00 Eh
 * total energy  :  -331.0980586 Eh     change       -0.1107238E+00 Eh
 * total energy  :  -331.1729729 Eh     change       -0.7491431E-01 Eh
 * total energy  :  -331.2405255 Eh     change       -0.6755262E-01 Eh
 * total energy  :  -331.2907546 Eh     change       -0.5022903E-01 Eh
 * total energy  :  -331.3187528 Eh     change       -0.2799820E-01 Eh
 * total energy  :  -331.3401097 Eh     change       -0.2135692E-01 Eh
 * total energy  :  -331.3552966 Eh     change       -0.1518691E-01 Eh
 * total energy  :  -331.3649081 Eh     change       -0.9611478E-02 Eh
 * total energy  :  -331.4578577 Eh     change       -0.3096437E-04 Eh
 * total energy  :  -331.4578796 Eh     change       -0.2182989E-04 Eh
 * total energy  :  -331.4578952 Eh     change       -0.1563828E-04 Eh
 * total energy  :  -331.4579104 Eh     change       -0.1518425E-04 Eh
 * total energy  :  -331.4579259 Eh     change       -0.1549974E-04 Eh
 * total energy  :  -331.4579373 Eh     change       -0.1143818E-04 Eh
 * total energy  :  -331.4579435 Eh     change       -0.6221467E-05 Eh
 * total energy  :  -331.4579491 Eh     change       -0.5550444E-05 Eh
 * total energy  :  -331.4579517 Eh     change       -0.2568357E-05 Eh
   *** GEOMETRY OPTIMIZATION CONVERGED AFTER 64 ITERATIONS ***

 final structure:
================
191
 xtb: 6.5.1 (b24c23e)
Ni          29.11813503860724        0.02716586013286        0.03332385301396
C           25.73173518823341        0.10998549401062        0.13945051020227
C           26.38488443172044        1.12630390477185       -0.52714701016525
C           25.71408608686975        2.18550912609938       -1.21581886882363
C           26.67442132034151        3.03628733602250       -1.64928103278868
C           27.93057661940427        2.50541952154822       -1.20795951694651
N           27.74502415152653        1.30919161792140       -0.56089778272543
C           29.14761808074365        3.16128967242303       -1.35508252101345
C           29.16346050678199        4.51271440248532       -1.95951838218882
C           29.90159820945833        4.76508505856989       -3.11865570132182
C           29.91580400445983        6.02472172269989       -3.69050085461748
C           29.20036648484543        7.07053377530170       -3.10140584257398
N           29.18030037746721        8.32180316156682       -3.69211004324461
C           28.45786879269063        6.82585859096666       -1.94318709593140
C           28.44079927227472        5.56066145336071       -1.38367351247756
C           30.35004674544270        2.59704065426739       -0.94686296036350
C           31.60962133502707        3.27402974896927       -1.00524247377541
C           32.55419700546159        2.37915761207157       -0.62586503307005
N           30.51869075490432        1.31003163084753       -0.48728874266474
C           31.86934836284005        1.16207171866819       -0.32940912355427
C           32.52589976078944       -0.03242752900060       -0.01793647320416
C           31.83827978637590       -1.20803022433398        0.29871310677242
C           32.48832085184512       -2.45350996747121        0.55199604427172
C           31.52278250514389       -3.32556641821731        0.93197166007856
C           30.28666537452719       -2.60418638997232        0.92464261214915
N           30.48791648162421       -1.31364248673658        0.48803732019264
C           29.07976564733417       -3.12936614151662        1.36970324451015
C           29.06200275581317       -4.49374802820568        1.94424470311766
C           29.83785517994383       -4.80522598227039        3.06368593779760
C           29.81738273235506       -6.07615099143793        3.60973785414780
C           29.02698454743184       -7.07428430838355        3.03388255599035
N           28.97235957093415       -8.33511304280950        3.60144996289755
C           28.24628863077564       -6.77025439804086        1.91550759818140
C           28.26478813737639       -5.49389399477824        1.38197106492607
C           27.88815686288076       -2.41597155411581        1.30205734380083
C           26.63721970758179       -2.89401807119199        1.81299473457533
C           25.69691115433080       -1.98338829977289        1.46593187130258
C           26.37517899019736       -0.94466266629810        0.75365711487910
N           27.72333525164850       -1.19734481941902        0.69273010364363
H           24.64891706398022        0.13822169444115        0.17703271172216
H           24.64523943125849        2.25090720262829       -1.34406569240268
H           26.55502472538915        3.94281015945716       -2.22011182255299
H           30.45281142958905        3.95668136237388       -3.58649915920347
H           30.48284149767345        6.20532096781851       -4.59719534380960
H           29.96139629842830        8.52054291649663       -4.29662477439679
H           28.93912573288000        9.08089591530034       -3.07516750542895
H           27.89856093543766        7.63292787746876       -1.48264993997315
H           27.87727602482102        5.38361163962123       -0.47408057421471
H           31.74390086698951        4.30406566924749       -1.29278920968245
H           33.62093427935323        2.51594040737199       -0.55057739334280
H           33.54763382382739       -2.62418142800705        0.44659583116931
H           31.62855179576471       -4.36647296921587        1.19073657003634
H           30.44645963291997       -4.03355165972337        3.52232919828642
H           30.41466313208261       -6.30239230683109        4.48627209330890
H           29.76858172463419       -8.58369087235396        4.16646442288767
H           28.66642647289847       -9.06894567340637        2.98271864955859
H           27.62857632967572       -7.54000095501161        1.46582649068279
H           27.66925536424011       -5.27057780810687        0.50346638242192
H           26.50817445280910       -3.80789209220267        2.36984857380931
H           24.63695244057847       -1.99705405330319        1.66454405880078
Ni          61.11715646930085       -0.01160930875557        0.04969405947893
C           64.50485555735118        0.02810523523284        0.17462752814075
C           63.85097633553071       -1.08687652622013        0.65719756115888
C           64.52196313978098       -2.24451189107106        1.16298278464758
C           63.56154115737210       -3.07592194053533        1.63210957747546
C           62.30508917680695       -2.41650743271669        1.42927533260636
N           62.49069795075482       -1.21656391761969        0.78918538417540
C           61.08729999350685       -2.90531669400920        1.88837555348044
C           61.07224289921127       -4.15727770933158        2.67862452872193
C           60.34212872592578       -5.26560574421422        2.24208416493426
C           60.33003411735842       -6.43991756021245        2.97335728396867
C           61.03979280117828       -6.52584099063317        4.17396716196982
N           61.06268600558639       -7.71118434067077        4.88763675218074
C           61.77411343651282       -5.42242700206363        4.61650120009675
C           61.78893424366660       -4.25520109587859        3.87392308822256
C           59.88391190384350       -2.25695970616756        1.63888278710292
C           58.62325262489384       -2.68712942374011        2.16237482855795
C           57.67859552364026       -1.87609493300429        1.62705094624021
N           59.71559743492026       -1.15885103151089        0.82540602091817
C           58.36442911234001       -0.94862889098620        0.78572490621718
C           57.70823687204603       -0.01973326154322       -0.02728001124931
C           58.39557799267356        0.90253294650980       -0.82179938522741
C           57.74444012351874        1.81134860153587       -1.70955653568546
C           58.71034271874185        2.61001256967781       -2.22532392124573
C           59.94788988013702        2.19622183454159       -1.63730309908535
N           59.74678715791194        1.11476832233998       -0.80866507357670
C           61.15669479682460        2.85191070243334       -1.83498461679377
C           61.17605778681527        4.08483120171559       -2.65474159550542
C           60.41287474604643        5.19638969829229       -2.28891595193871
C           60.43485202901374        6.35278945790660       -3.04803025263881
C           61.21379300459719        6.41670616664925       -4.20638107818364
N           61.26965636080044        7.58492542405846       -4.94595848404263
C           61.98226286291138        5.31018950487862       -4.57748734048198
C           61.96251251886309        4.16130852070839       -3.80694694998869
C           62.34959099182902        2.39553246183973       -1.28570315146833
C           63.60226876260566        3.08127116928047       -1.40855105797608
C           64.54236560195919        2.28677609542404       -0.84403342074827
C           63.86228546226778        1.12210046366368       -0.36717698742692
N           62.51350430375386        1.21421191378693       -0.60673183193234
H           65.58774533669107        0.04250537156721        0.21759984369157
H           65.59097937022467       -2.38649406506314        1.14894410259548
H           63.68104675147401       -4.05173344394112        2.07412235167085
H           59.79574090964540       -5.20958230470203        1.30691091892939
H           59.76930900779330       -7.29755044043727        2.61797971413295
H           60.28579263157962       -8.32868912067651        4.71410297753639
H           61.29933701065055       -7.61784147125089        5.86243984164919
H           62.32901318253322       -5.48382985407467        5.54632429592293
H           62.34617775193674       -3.39714373591555        4.23373752641132
H           58.48837981438950       -3.50062378988800        2.85639107433775
H           56.61120234198987       -1.89324787599237        1.77772678894398
H           56.68425790125681        1.82276431681777       -1.90517556039815
H           58.60406505535945        3.40657249765535       -2.94356683318659
H           59.81308295528242        5.15793324609091       -1.38613516707821
H           59.84750166582225        7.21346093961117       -2.74717145850443
H           60.47917816942483        8.19936803027004       -4.83368434100486
H           61.56480484590368        7.47094461240050       -5.90242801512201
H           62.59133386712194        5.35489714566615       -5.47376959978630
H           62.54850199683992        3.30075963009329       -4.11087560421805
H           63.73235998441406        4.04923835821926       -1.86463458327878
H           65.60327771344406        2.45655498755125       -0.75026505092014
C           37.72630854626405       -0.07788159825211       -0.04368099627438
C           36.49819174279392       -0.07432082329584       -0.04070140793309
C           35.15353654549305       -0.06524529155431       -0.03629114812981
C           33.93003140382327       -0.05276330591560       -0.02901625210892
C           39.07092919415562       -0.07533601843748       -0.04040340732277
C           40.29464334745978       -0.07111391097841       -0.03523144480258
C           53.73491027013095       -0.01515144622005       -0.06784550165609
C           52.50694456856150       -0.01538590580072       -0.06826868501198
C           51.16187380831063       -0.01596755109088       -0.06253183521836
C           49.93833303079289       -0.01808262025243       -0.04944269179472
C           55.08005365852331       -0.01591435920360       -0.06029118353231
C           56.30347091198536       -0.01681874881522       -0.04892461928569
Ni          45.11627048480332       -0.02917022139572        0.01038584972489
C           41.69878678350333       -0.05992346446520       -0.02552860855011
C           42.36408642436072        1.07964038051935       -0.48735857137020
C           41.67913371108962        2.24044773391221       -0.95777260281014
C           42.62624325151894        3.17832530194537       -1.20042286686654
C           43.88930885572849        2.58114081022130       -0.89165831397997
N           43.71634451648573        1.28256928813014       -0.46631246164754
C           45.09606604854401        3.26718432880706       -0.93365021830811
C           45.08855279972139        4.69644629104067       -1.32979762315149
C           44.69258384928308        5.07809518994650       -2.61329140685813
C           44.68923710577410        6.41060702573669       -2.98668084291009
C           45.08255975146309        7.39495724056285       -2.07643177410798
N           45.03372319335456        8.73216303898310       -2.43001945123956
C           45.46916640302271        7.02103413445320       -0.78687054296676
C           45.47766795697733        5.68566284589287       -0.42420869100871
C           46.31205422305421        2.66991145248474       -0.62774979866051
C           47.56950815218975        3.34735682406056       -0.71253427234381
C           48.52990600798434        2.42417826380199       -0.46536582658435
N           46.50130186210583        1.34159146845691       -0.31707610792837
C           47.85758898598413        1.18620091554143       -0.23518071440860
C           48.53381843591658       -0.01906868764516       -0.02523759389234
C           47.86836902217303       -1.22422980217858        0.21724402009555
C           48.54830982196958       -2.46407721344867        0.41175901745803
C           47.59918226185501       -3.38473982266020        0.70876650996717
C           46.34296296105811       -2.70037907915511        0.70234580776380
N           46.51712943241643       -1.37750800283240        0.36288147310470
C           45.13535057122202       -3.30345668104791        1.03061783107997
C           45.14639470617308       -4.71533216792123        1.47891382818627
C           44.45758048094167       -5.69659068790664        0.76196849263760
C           44.47219269052958       -7.01723568910633        1.17407564325313
C           45.17694843100501       -7.38562027619230        2.32308790524078
N           45.15295175300552       -8.69598001770272        2.76644226038693
C           45.85755002137677       -6.40738706940857        3.05288396766930
C           45.84708724692229       -5.09096006486375        2.62758049818493
C           43.91891117911915       -2.63841754167865        0.94760751565787
C           42.66625303061844       -3.22483374985780        1.31327532873464
C           41.70544941282320       -2.32101253038963        1.00268739476527
C           42.37510301846567       -1.18081965811537        0.46517087427566
N           43.73014240447053       -1.36350217344171        0.46214315755883
H           40.60944045874674        2.31881336663841       -1.06633313610958
H           42.48847611751978        4.19069971346498       -1.54300308588595
H           44.40237648785539        4.31833133892221       -3.33073070712462
H           44.38489476106809        6.69495341263122       -3.98805573700179
H           45.07377300054980        8.91331723886030       -3.42025511771265
H           45.62002692682113        9.34002175026265       -1.88061422269192
H           45.76356288310493        7.78163716337338       -0.07200684291970
H           45.77197711874765        5.40340687884741        0.58072471013647
H           47.69395166199931        4.39103252965332       -0.95051610583207
H           49.60016643472922        2.55248566777172       -0.44842887038866
H           49.61475694953749       -2.59784378166444        0.32797679823797
H           47.72846505014260       -4.43611085349714        0.90731788572299
H           43.92242526472718       -5.42138152974971       -0.14028699972583
H           43.94000748114222       -7.77156036726605        0.60486319232377
H           45.91340093793944       -8.95549032453056        3.37405049696420
H           44.94191788950784       -9.38248336542719        2.06003674878730
H           46.39492057665551       -6.68504089175757        3.95308005982599
H           46.37171639166114       -4.33607330566237        3.20300406853681
H           42.54654173401710       -4.20036880949183        1.75529123314448
H           40.63752859644229       -2.40291685096973        1.12536999857436

          :  Hamiltonian                  GFN1-xTB          :
         :: total energy            -331.457951671229 Eh    ::
         :: gradient norm              0.000390587502 Eh/a0 ::
         :: HOMO-LUMO gap              1.009002240038 eV    ::
         :: SCC energy              -336.869194378026 Eh    ::
         :: repulsion energy           5.580733879564 Eh    ::

    * Orbital Energies and Occupations

         #    Occupation            Energy/Eh            Energy/eV
      -------------------------------------------------------------
         1        2.0000           -0.7795192             -21.2118
       ...           ...                  ...                  ...
       295        2.0000           -0.3905153             -10.6265
       296        2.0000           -0.3902667             -10.6197
       297        2.0000           -0.3902198             -10.6184
       298        2.0000           -0.3900647             -10.6142
       299        2.0000           -0.3897117             -10.6046
       300        2.0000           -0.3892709             -10.5926
       301        2.0000           -0.3886225             -10.5750
       302        2.0000           -0.3885745             -10.5736
       303        2.0000           -0.3881724             -10.5627
       304        2.0000           -0.3881236             -10.5614
       305        2.0000           -0.3839787             -10.4486
       306        2.0000           -0.3792574             -10.3201
       307        2.0000           -0.3734007             -10.1607 (HOMO)
       308                         -0.3363205              -9.1517 (LUMO)
       309                         -0.3276066              -8.9146
       310                         -0.3234500              -8.8015
       311                         -0.3216505              -8.7526
       312                         -0.3216074              -8.7514
       313                         -0.3212727              -8.7423
       314                         -0.3208476              -8.7307
       315                         -0.3202168              -8.7135
       316                         -0.3196098              -8.6970
       317                         -0.2986014              -8.1254
       318                         -0.2898002              -7.8859
       ...                                ...                  ...
       655                          1.5860304              43.1581
      -------------------------------------------------------------
                  HL-Gap            0.0370802 Eh            1.0090 eV

Wiberg/Mayer (AO) data.
largest (>0.10) Wiberg bond orders for each atom

     #   Z sym  total        # sym  WBO       # sym  WBO       # sym  WBO
 ---------------------------------------------------------------------------
     1  28 Ni   3.020 --    39 N    0.665     7 N    0.665    19 N    0.662
                            26 N    0.662
     2   6 C    3.932 --    38 C    1.363     3 C    1.363    40 H    0.970
     3   6 C    3.925 --     2 C    1.363     7 N    1.212     4 C    1.178
     4   6 C    3.959 --     5 C    1.645     3 C    1.178    41 H    0.975
     5   6 C    3.963 --     4 C    1.645     6 C    1.180    42 H    0.973
     6   6 C    3.918 --     8 C    1.318     7 N    1.221     5 C    1.180
     7   7 N    3.400 --     6 C    1.221     3 C    1.212     1 Ni   0.665
     8   6 C    3.939 --    16 C    1.325     6 C    1.318     9 C    1.034
     9   6 C    3.988 --    15 C    1.380    10 C    1.380     8 C    1.034
    10   6 C    3.988 --    11 C    1.469     9 C    1.380    43 H    0.973
    11   6 C    3.990 --    10 C    1.469    12 C    1.353    44 H    0.972
    12   6 C    3.952 --    14 C    1.353    11 C    1.353    13 N    1.117
    13   7 N    3.135 --    12 C    1.117    46 H    0.933    45 H    0.933
    14   6 C    3.989 --    15 C    1.469    12 C    1.353    47 H    0.972
    15   6 C    3.988 --    14 C    1.469     9 C    1.380    48 H    0.973
    16   6 C    3.914 --     8 C    1.325    19 N    1.205    17 C    1.187
    17   6 C    3.959 --    18 C    1.632    16 C    1.187    49 H    0.973
    18   6 C    3.961 --    17 C    1.632    20 C    1.194    50 H    0.973
    19   7 N    3.404 --    20 C    1.238    16 C    1.205     1 Ni   0.662
    20   6 C    3.904 --    21 C    1.261    19 N    1.238    18 C    1.194
    21   6 C    3.942 --    20 C    1.261    22 C    1.260   124 C    1.187
    22   6 C    3.904 --    21 C    1.260    26 N    1.239    23 C    1.194
    23   6 C    3.961 --    24 C    1.632    22 C    1.194    51 H    0.973
    24   6 C    3.959 --    23 C    1.632    25 C    1.186    52 H    0.973
    25   6 C    3.914 --    27 C    1.326    26 N    1.205    24 C    1.186
    26   7 N    3.404 --    22 C    1.239    25 C    1.205     1 Ni   0.662
    27   6 C    3.939 --    25 C    1.326    35 C    1.318    28 C    1.034
    28   6 C    3.988 --    34 C    1.380    29 C    1.380    27 C    1.034
    29   6 C    3.988 --    30 C    1.469    28 C    1.380    53 H    0.973
    30   6 C    3.990 --    29 C    1.469    31 C    1.353    54 H    0.972
    31   6 C    3.952 --    33 C    1.353    30 C    1.353    32 N    1.117
    32   7 N    3.135 --    31 C    1.117    56 H    0.933    55 H    0.933
    33   6 C    3.989 --    34 C    1.469    31 C    1.353    57 H    0.972
    34   6 C    3.988 --    33 C    1.469    28 C    1.380    58 H    0.973
    35   6 C    3.918 --    27 C    1.318    39 N    1.222    36 C    1.180
    36   6 C    3.963 --    37 C    1.645    35 C    1.180    59 H    0.973
    37   6 C    3.959 --    36 C    1.645    38 C    1.178    60 H    0.975
    38   6 C    3.925 --     2 C    1.363    39 N    1.211    37 C    1.178
    39   7 N    3.400 --    35 C    1.222    38 C    1.211     1 Ni   0.665
    40   1 H    1.001 --     2 C    0.970
    41   1 H    0.998 --     4 C    0.975
    42   1 H    1.005 --     5 C    0.973
    43   1 H    1.005 --    10 C    0.973
    44   1 H    0.998 --    11 C    0.972
    45   1 H    0.960 --    13 N    0.933
    46   1 H    0.960 --    13 N    0.933
    47   1 H    0.999 --    14 C    0.972
    48   1 H    1.005 --    15 C    0.973
    49   1 H    1.005 --    17 C    0.973
    50   1 H    1.002 --    18 C    0.973
    51   1 H    1.002 --    23 C    0.973
    52   1 H    1.005 --    24 C    0.973
    53   1 H    1.005 --    29 C    0.973
    54   1 H    0.998 --    30 C    0.972
    55   1 H    0.960 --    32 N    0.933
    56   1 H    0.960 --    32 N    0.933
    57   1 H    0.999 --    33 C    0.972
    58   1 H    1.005 --    34 C    0.973
    59   1 H    1.005 --    36 C    0.973
    60   1 H    0.998 --    37 C    0.975
    61  28 Ni   3.019 --    99 N    0.665    67 N    0.665    79 N    0.662
                            86 N    0.662
    62   6 C    3.932 --    98 C    1.364    63 C    1.363   100 H    0.970
    63   6 C    3.924 --    62 C    1.363    67 N    1.212    64 C    1.178
    64   6 C    3.959 --    65 C    1.645    63 C    1.178   101 H    0.975
    65   6 C    3.963 --    64 C    1.645    66 C    1.179   102 H    0.973
    66   6 C    3.918 --    68 C    1.319    67 N    1.221    65 C    1.179
    67   7 N    3.401 --    66 C    1.221    63 C    1.212    61 Ni   0.665
    68   6 C    3.939 --    76 C    1.325    66 C    1.319    69 C    1.033
    69   6 C    3.988 --    75 C    1.380    70 C    1.380    68 C    1.033
    70   6 C    3.988 --    71 C    1.469    69 C    1.380   103 H    0.973
    71   6 C    3.990 --    70 C    1.469    72 C    1.353   104 H    0.972
    72   6 C    3.952 --    74 C    1.353    71 C    1.353    73 N    1.117
    73   7 N    3.135 --    72 C    1.117   106 H    0.933   105 H    0.933
    74   6 C    3.989 --    75 C    1.469    72 C    1.353   107 H    0.972
    75   6 C    3.988 --    74 C    1.469    69 C    1.380   108 H    0.973
    76   6 C    3.914 --    68 C    1.325    79 N    1.206    77 C    1.186
    77   6 C    3.959 --    78 C    1.632    76 C    1.186   109 H    0.973
    78   6 C    3.961 --    77 C    1.632    80 C    1.194   110 H    0.973
    79   7 N    3.404 --    80 C    1.238    76 C    1.206    61 Ni   0.662
    80   6 C    3.905 --    81 C    1.262    79 N    1.238    78 C    1.194
    81   6 C    3.942 --    80 C    1.262    82 C    1.262   132 C    1.184
    82   6 C    3.905 --    81 C    1.262    86 N    1.238    83 C    1.194
    83   6 C    3.961 --    84 C    1.632    82 C    1.194   111 H    0.973
    84   6 C    3.959 --    83 C    1.632    85 C    1.186   112 H    0.973
    85   6 C    3.914 --    87 C    1.326    86 N    1.205    84 C    1.186
    86   7 N    3.404 --    82 C    1.238    85 C    1.205    61 Ni   0.662
    87   6 C    3.939 --    85 C    1.326    95 C    1.318    88 C    1.033
    88   6 C    3.988 --    94 C    1.380    89 C    1.380    87 C    1.033
    89   6 C    3.988 --    90 C    1.469    88 C    1.380   113 H    0.973
    90   6 C    3.990 --    89 C    1.469    91 C    1.354   114 H    0.972
    91   6 C    3.952 --    90 C    1.354    93 C    1.353    92 N    1.117
    92   7 N    3.135 --    91 C    1.117   116 H    0.933   115 H    0.933
    93   6 C    3.989 --    94 C    1.469    91 C    1.353   117 H    0.972
    94   6 C    3.988 --    93 C    1.469    88 C    1.380   118 H    0.973
    95   6 C    3.918 --    87 C    1.318    99 N    1.222    96 C    1.180
    96   6 C    3.963 --    97 C    1.645    95 C    1.180   119 H    0.973
    97   6 C    3.959 --    96 C    1.645    98 C    1.177   120 H    0.975
    98   6 C    3.924 --    62 C    1.364    99 N    1.211    97 C    1.177
    99   7 N    3.401 --    95 C    1.222    98 C    1.211    61 Ni   0.665
   100   1 H    1.001 --    62 C    0.970
   101   1 H    0.998 --    64 C    0.975
   102   1 H    1.005 --    65 C    0.973
   103   1 H    1.005 --    70 C    0.973
   104   1 H    0.999 --    71 C    0.972
   105   1 H    0.960 --    73 N    0.933
   106   1 H    0.960 --    73 N    0.933
   107   1 H    0.999 --    74 C    0.972
   108   1 H    1.005 --    75 C    0.973
   109   1 H    1.005 --    77 C    0.973
   110   1 H    1.002 --    78 C    0.973
   111   1 H    1.002 --    83 C    0.973
   112   1 H    1.005 --    84 C    0.973
   113   1 H    1.005 --    89 C    0.973
   114   1 H    0.998 --    90 C    0.972
   115   1 H    0.960 --    92 N    0.933
   116   1 H    0.960 --    92 N    0.933
   117   1 H    0.999 --    93 C    0.972
   118   1 H    1.005 --    94 C    0.973
   119   1 H    1.005 --    96 C    0.973
   120   1 H    0.998 --    97 C    0.975
   121   6 C    3.927 --   122 C    2.372   125 C    1.333   124 C    0.191
   122   6 C    3.926 --   121 C    2.372   123 C    1.333   126 C    0.191
   123   6 C    3.936 --   124 C    2.453   122 C    1.333
   124   6 C    3.891 --   123 C    2.453    21 C    1.187   121 C    0.191
   125   6 C    3.934 --   126 C    2.452   121 C    1.333
   126   6 C    3.891 --   125 C    2.452   134 C    1.188   122 C    0.191
   127   6 C    3.926 --   128 C    2.374   131 C    1.331   130 C    0.191
   128   6 C    3.927 --   127 C    2.374   129 C    1.331   132 C    0.191
   129   6 C    3.934 --   130 C    2.454   128 C    1.331
   130   6 C    3.891 --   129 C    2.454   153 C    1.186   127 C    0.191
   131   6 C    3.937 --   132 C    2.456   127 C    1.331
   132   6 C    3.890 --   131 C    2.456    81 C    1.184   128 C    0.191
   133  28 Ni   3.000 --   151 N    0.661   139 N    0.661   171 N    0.661
                           158 N    0.660
   134   6 C    3.932 --   135 C    1.260   170 C    1.259   126 C    1.188
   135   6 C    3.904 --   134 C    1.260   139 N    1.240   136 C    1.193
   136   6 C    3.959 --   137 C    1.632   135 C    1.193   172 H    0.973
   137   6 C    3.960 --   136 C    1.632   138 C    1.187   173 H    0.972
   138   6 C    3.911 --   140 C    1.326   139 N    1.204   137 C    1.187
   139   7 N    3.400 --   135 C    1.240   138 C    1.204   133 Ni   0.661
   140   6 C    3.934 --   138 C    1.326   148 C    1.325   141 C    1.025
   141   6 C    3.988 --   142 C    1.384   147 C    1.383   140 C    1.025
   142   6 C    3.989 --   143 C    1.467   141 C    1.384   174 H    0.973
                           146 C    0.100
   143   6 C    3.990 --   142 C    1.467   144 C    1.355   175 H    0.972
                           147 C    0.100
   144   6 C    3.953 --   143 C    1.355   146 C    1.355   145 N    1.116
   145   7 N    3.135 --   144 C    1.116   176 H    0.933   177 H    0.933
   146   6 C    3.990 --   147 C    1.467   144 C    1.355   178 H    0.972
                           142 C    0.100
   147   6 C    3.989 --   146 C    1.467   141 C    1.383   179 H    0.973
                           143 C    0.100
   148   6 C    3.911 --   140 C    1.325   151 N    1.205   149 C    1.187
   149   6 C    3.960 --   150 C    1.632   148 C    1.187   180 H    0.973
   150   6 C    3.959 --   149 C    1.632   152 C    1.194   181 H    0.973
   151   7 N    3.400 --   152 C    1.240   148 C    1.205   133 Ni   0.661
   152   6 C    3.905 --   153 C    1.260   151 N    1.240   150 C    1.194
   153   6 C    3.932 --   152 C    1.260   154 C    1.260   130 C    1.186
   154   6 C    3.905 --   153 C    1.260   158 N    1.239   155 C    1.195
   155   6 C    3.959 --   156 C    1.630   154 C    1.195   182 H    0.973
   156   6 C    3.960 --   155 C    1.630   157 C    1.188   183 H    0.973
   157   6 C    3.911 --   159 C    1.322   158 N    1.206   156 C    1.188
   158   7 N    3.400 --   154 C    1.239   157 C    1.206   133 Ni   0.660
   159   6 C    3.934 --   167 C    1.324   157 C    1.322   160 C    1.031
   160   6 C    3.988 --   161 C    1.381   166 C    1.381   159 C    1.031
   161   6 C    3.988 --   162 C    1.469   160 C    1.381   184 H    0.973
   162   6 C    3.990 --   161 C    1.469   163 C    1.354   185 H    0.972
   163   6 C    3.952 --   162 C    1.354   165 C    1.353   164 N    1.117
   164   7 N    3.136 --   163 C    1.117   186 H    0.933   187 H    0.933
   165   6 C    3.990 --   166 C    1.469   163 C    1.353   188 H    0.972
   166   6 C    3.988 --   165 C    1.469   160 C    1.381   189 H    0.973
   167   6 C    3.911 --   159 C    1.324   171 N    1.204   168 C    1.188
   168   6 C    3.960 --   169 C    1.631   167 C    1.188   190 H    0.973
   169   6 C    3.959 --   168 C    1.631   170 C    1.195   191 H    0.973
   170   6 C    3.904 --   134 C    1.259   171 N    1.241   169 C    1.195
   171   7 N    3.400 --   170 C    1.241   167 C    1.204   133 Ni   0.661
   172   1 H    1.002 --   136 C    0.973
   173   1 H    1.005 --   137 C    0.972
   174   1 H    1.004 --   142 C    0.973
   175   1 H    0.998 --   143 C    0.972
   176   1 H    0.961 --   145 N    0.933
   177   1 H    0.960 --   145 N    0.933
   178   1 H    0.998 --   146 C    0.972
   179   1 H    1.004 --   147 C    0.973
   180   1 H    1.006 --   149 C    0.973
   181   1 H    1.002 --   150 C    0.973
   182   1 H    1.002 --   155 C    0.973
   183   1 H    1.005 --   156 C    0.973
   184   1 H    1.005 --   161 C    0.973
   185   1 H    0.998 --   162 C    0.972
   186   1 H    0.960 --   164 N    0.933
   187   1 H    0.960 --   164 N    0.933
   188   1 H    0.998 --   165 C    0.972
   189   1 H    1.005 --   166 C    0.973
   190   1 H    1.005 --   168 C    0.973
   191   1 H    1.002 --   169 C    0.973
 ---------------------------------------------------------------------------

           -------------------------------------------------
          | TOTAL ENERGY             -331.457951671229 Eh   |
          | GRADIENT NORM               0.000390587502 Eh/α |
          | HOMO-LUMO GAP               1.009002240038 eV   |
           -------------------------------------------------

 * finished run on 2022/07/30 at 04:23:38.097
