   * xtb version 6.5.1 (b24c23e) compiled by 'conda@728c89f4b128' on 2022-07-12
          program call               : xtb Fe_PhCN_C8_3.xyz --gfn 1 --opt -T 48

   ID    Z sym.   atoms
    1   26 Fe     1, 59, 133
    2    6 C      2-6, 8-13, 15-19, 21-26, 28-33, 35-40, 60-64, 66-71, 73-77,
                  79-84, 86-91, 93-98, 117-132, 134-138, 140-145, 147-151,
                  153-158, 160-165, 167-172
    3    7 N      7, 14, 20, 27, 34, 41, 65, 72, 78, 85, 92, 99, 139, 146,
                  152, 159, 166, 173
    4    1 H      42-58, 100-116, 174-189

          :  Hamiltonian                  GFN1-xTB          :
 * total energy  :  -341.3020541 Eh     change       -0.2151722E-07 Eh
 * total energy  :  -341.6609126 Eh     change       -0.3588585E+00 Eh
 * total energy  :  -341.7766746 Eh     change       -0.1157620E+00 Eh
 * total energy  :  -341.8367868 Eh     change       -0.6011219E-01 Eh
 * total energy  :  -341.8912522 Eh     change       -0.5446542E-01 Eh
 * total energy  :  -341.9514743 Eh     change       -0.6022211E-01 Eh
 * total energy  :  -342.0078818 Eh     change       -0.5640747E-01 Eh
 * total energy  :  -342.0419849 Eh     change       -0.3410312E-01 Eh
 * total energy  :  -342.0699584 Eh     change       -0.2797351E-01 Eh
 * total energy  :  -342.0914936 Eh     change       -0.2153521E-01 Eh
 * total energy  :  -342.2172537 Eh     change       -0.8929814E-05 Eh
 * total energy  :  -342.2172544 Eh     change       -0.6894777E-06 Eh
 * total energy  :  -342.2172654 Eh     change       -0.1095208E-04 Eh
 * total energy  :  -342.2172710 Eh     change       -0.5649030E-05 Eh
 * total energy  :  -342.2172779 Eh     change       -0.6902242E-05 Eh
 * total energy  :  -342.2172844 Eh     change       -0.6513446E-05 Eh
 * total energy  :  -342.2172886 Eh     change       -0.4171008E-05 Eh
 * total energy  :  -342.2172939 Eh     change       -0.5333170E-05 Eh
 * total energy  :  -342.2172969 Eh     change       -0.2926739E-05 Eh
   *** GEOMETRY OPTIMIZATION CONVERGED AFTER 84 ITERATIONS ***

 final structure:
================
189
 xtb: 6.5.1 (b24c23e)
Fe          28.67957542744879        0.02096090698662        0.05326985659712
C           25.29432264547746        0.02850112021677        0.16925750102748
C           25.94335662328423        1.24571810719045        0.20191829133929
C           25.26810365743579        2.50732512492684        0.25004278802603
C           26.22596938016109        3.45545957866226        0.37897865504338
C           27.48497256109546        2.76915114048615        0.42609976434175
N           27.30068480650204        1.42240097685771        0.26856896051143
C           28.70505537939172        3.39239763156650        0.66776960747500
C           28.71675421008589        4.84892759985924        0.93544275249746
C           28.03029731462415        5.37338155781895        2.03308622733179
C           28.04293000237566        6.73299338577358        2.28746811142971
C           28.74079541447039        7.59817860388885        1.43952068920641
C           28.75252109611515        8.99840820953458        1.69629655273380
N           28.76116804408095       10.13027716486090        1.90423555580137
C           29.42723737024631        7.07836594079269        0.33811187390593
C           29.41626020392887        5.71685881976555        0.09378554051009
C           29.91150141128571        2.70589636867070        0.68056898424099
C           31.17274630993942        3.30519937726807        1.00177971705426
C           32.11672438923424        2.35044688962050        0.81976005125304
N           30.08384229560930        1.38359039367421        0.34814313095859
C           31.42972442033578        1.17161581841500        0.39379756923571
C           32.08717121362762        0.00223067223135       -0.00934590604053
C           31.40411288383351       -1.15318788193222       -0.41031788338970
C           32.06283833103267       -2.32926678183392       -0.88552530153068
C           31.09972382507203       -3.26267720665272       -1.07770266557853
C           29.85645293732126       -2.65669160702976       -0.70287120797683
N           30.05658821320103       -1.34576462500550       -0.34041451830574
C           28.64496046669673       -3.33206286408529       -0.65378625360729
C           28.62415552428586       -4.77920828049274       -0.96783047157686
C           27.86877357310242       -5.25794183176620       -2.04087181255266
C           27.84797867740050       -6.60813410966213       -2.34070538034977
C           28.58069734370362       -7.50993460763180       -1.56320372590029
C           28.55870114506981       -8.90068659490653       -1.86655595990624
N           28.54047662208239      -10.02481755507469       -2.11184699673091
C           29.33466818052635       -7.03621417218526       -0.48542266935100
C           29.35659112354374       -5.68374991583267       -0.19566263367682
C           27.44717657389502       -2.70932407104000       -0.31643246403875
C           26.19289681587726       -3.39386906698453       -0.18850449970760
C           25.25332805902013       -2.44831356929627        0.04869973538379
C           25.93511829935229       -1.18946153625971        0.07259982247491
N           27.28165858198476       -1.36690962148351       -0.11203645342098
H           24.21112594489597        0.02982016772300        0.21417468294708
H           24.19856723893323        2.63142650579664        0.19037452904367
H           26.10364250370517        4.52488835294427        0.43592210622933
H           27.49796846911100        4.70413483201707        2.69947097332150
H           27.51353561540749        7.13216959194079        3.14468459626523
H           29.96666463213717        7.74653148489258       -0.32293361874093
H           29.94064445405435        5.31810017029769       -0.76723732463162
H           31.30780508797350        4.32271035970129        1.33049668261684
H           33.18378975128624        2.42394611064721        0.95451474230277
H           33.12522315091421       -2.41406193300840       -1.04790667817695
H           31.21112675053284       -4.27081515044070       -1.44215520255930
H           27.30793906302580       -4.56002297826634       -2.65220228289003
H           27.26506029230166       -6.97154800456690       -3.17888688282630
H           29.90027897236442       -7.73310712210429        0.12191122762378
H           29.93281125491226       -5.32132792021924        0.64810451786986
H           26.06203325756347       -4.46100409690807       -0.26610466220373
H           24.19194361239662       -2.57207497272037        0.19366308189329
Fe          65.79331432999184       -0.00285907527046        0.04035838655268
C           69.18147203415087       -0.00197961850817        0.17919618452317
C           68.53034226916756       -1.21272803235284        0.29490055764383
C           69.20556481938939       -2.46887935484439        0.42114786385909
C           68.24713004141044       -3.40848123891467        0.59772783494473
C           66.98752184873007       -2.72172549057676        0.59490104343732
N           67.17293113728198       -1.38410407194578        0.37159090278236
C           65.76519317907787       -3.33650896984270        0.84266559397858
C           65.75304570207221       -4.78105103083447        1.17108931187407
C           66.40936082159115       -5.25382108186377        2.30976825973152
C           66.39807297253085       -6.60175522423111        2.62036204186241
C           65.73191429823586       -7.50694498301852        1.78884681761518
C           65.72195978907565       -8.89528359459415        2.10357397093658
N           65.71540689476375      -10.01767564334845        2.35738063002703
C           65.07576946067203       -7.03886626067761        0.64652731246202
C           65.08534280028137       -5.68865022518508        0.34576270181147
C           64.55657200669648       -2.65507039994779        0.80167002814100
C           63.29175027330488       -3.25123043394260        1.11449566715898
C           62.34760991589062       -2.30712032333356        0.88607442629138
N           64.38625017422014       -1.34304163847125        0.42939393015723
C           63.03781816516021       -1.13672119218064        0.44230104253946
C           62.38205562001745        0.02553325275590        0.02160156531059
C           63.06358793785562        1.17346312311502       -0.39864619358558
C           62.40185279420182        2.33860810514015       -0.89603081299222
C           63.36549640375987        3.26060285373896       -1.13367224895753
C           64.61263551148697        2.65927750227509       -0.76485568916145
N           64.41295311674111        1.36444017573153       -0.34881171228142
C           65.83000587879756        3.32551253811755       -0.78103660602755
C           65.85275621256974        4.75409824532342       -1.17252907092857
C           66.56785392763251        5.16382606118688       -2.30026874495410
C           66.58821254900576        6.49486683713404       -2.67612071952813
C           65.89564052462133        7.44652163490856       -1.92157844544282
C           65.91611474990016        8.81762496042914       -2.30417134623753
N           65.93287792868071        9.92541154081318       -2.61568395692598
C           65.18282398418593        7.04203236941159       -0.78900426881028
C           65.16101297676072        5.70810936873192       -0.42298855861429
C           67.03175133859689        2.71087057614978       -0.44640509822290
C           68.29250700644246        3.39319825816620       -0.38970950793167
C           69.23128768505568        2.45839702319282       -0.11186635111092
C           68.54313741719419        1.20831231792777        0.00604104101238
N           67.19362238694900        1.38244595535391       -0.16025807733200
H           70.26494349085971       -0.00317052541542        0.21630143997991
H           70.27544571478610       -2.59560795599609        0.37444360345469
H           68.36914145408686       -4.47287106335900        0.71639867048892
H           66.91757136133118       -4.55327857231687        2.96268111455176
H           66.90418674353535       -6.96081049464347        3.50882279556945
H           64.56113346311228       -7.73822720747548       -0.00189670923199
H           64.58466477090347       -5.33017079884456       -0.54651335645052
H           63.15454323652938       -4.25997994775901        1.46830435862258
H           61.27834268752006       -2.38184567463615        1.00132359036050
H           61.33728567342637        2.42342268888611       -1.04334949026567
H           63.25219244098233        4.25739796852590       -1.52751302542296
H           67.09718298587305        4.42662288258267       -2.89331968421610
H           67.13920735628649        6.80449667808017       -3.55643951938829
H           64.64859487957224        7.77793484559652       -0.19952532193232
H           64.61630720775467        5.39955633466331        0.46210986931342
H           68.42747997112410        4.45222378428760       -0.53858487235935
H           70.29627594917959        2.58336993541653        0.00239194986372
C           33.48699321015201       -0.00775322357499       -0.02100920847208
C           34.71372192586591       -0.01242568828681       -0.03036794532402
C           36.05260385454933       -0.01681420607561       -0.03816221560204
C           37.28583743648810       -0.01743061268992       -0.04704465059176
C           38.61976599802230       -0.01484011533917       -0.05004474410464
C           39.85312850560629       -0.01142427785071       -0.05177752702975
C           41.19169854620817       -0.00862066757023       -0.05109855704222
C           42.41875845002085       -0.00381828671700       -0.05162077957969
C           52.04751474606208        0.05454383233352       -0.03464732465727
C           53.27372467321060        0.06085871038247       -0.03690795689137
C           54.61380188758466        0.06512502360403       -0.03589228307505
C           55.84620280778206        0.06705491006141       -0.03104545140605
C           57.18171870104674        0.06408026616788       -0.02331744310774
C           58.41386561998468        0.05735666394277       -0.01404853873532
C           59.75436633187164        0.04779519106245       -0.00242382923926
C           60.98008951233354        0.03663731786938        0.00846034617433
Fe          47.23245488305630        0.02358905933678       -0.04110874131511
C           43.81758611837579        0.00354663657654       -0.04892544861756
C           44.49727750498904       -1.19124173209462       -0.32225598384527
C           43.83452261335214       -2.43297790377431       -0.56843870260260
C           44.79573334191319       -3.32244611206167       -0.91775558757677
C           46.04060463441083       -2.61459595641534       -0.89271674663844
N           45.84473374615840       -1.31895420661003       -0.48080446917203
C           47.25344567794683       -3.15739676913428       -1.29802362627574
C           47.26357373174299       -4.53312861191770       -1.84646673252699
C           46.54288836897790       -4.83848346319790       -3.00326492951590
C           46.55647793241139       -6.12031097230324       -3.52307498610891
C           47.28862922235844       -7.12690968881331       -2.88655348371674
C           47.30314174935027       -8.44754550978618       -3.41826594621674
N           47.31440980501613       -9.51553118229745       -3.84657703335923
C           48.00720469676225       -6.82719482937578       -1.72539510030841
C           47.99588493692848       -5.54134240852214       -1.21552721896537
C           48.45862893050931       -2.47002153139675       -1.21486314236402
C           49.71150920006541       -2.98879001915028       -1.67575439013394
C           50.66106987564537       -2.09097189477183       -1.31619878760663
N           48.63747291985296       -1.24266490916599       -0.62599046349739
C           49.98322410189919       -1.02497705295213       -0.64853338786864
C           50.64701091726485        0.04452613663002       -0.03425535004278
C           49.96788306148583        1.10397846792873        0.58076224949831
C           50.63019191395016        2.17654899681755        1.25344565821124
C           49.66816407498496        3.06096605847742        1.61316308956209
C           48.42349057772464        2.52810784950394        1.14612809005863
N           48.61954850577514        1.30397934389051        0.55586582703594
C           47.21037906494919        3.20225158396132        1.22182942037182
C           47.20175778867520        4.57934147181918        1.76661346951397
C           46.46559600925475        4.88217620107385        2.91433398772934
C           46.45910397088672        6.16669774197454        3.42767176525924
C           47.18656652128543        7.17840709769365        2.79379646777129
C           47.17975568415655        8.50232390807298        3.31740600589553
N           47.17137014358155        9.57243723326091        3.74000547351355
C           47.92159861193419        6.88089332863116        1.64241095933800
C           47.93006919524047        5.59254356510360        1.13894037647399
C           46.00635704540174        2.64639769482573        0.80776834288245
C           44.75392763251681        3.34105400237574        0.82242207894226
C           43.80476283933237        2.44088000304255        0.46757048006056
C           44.48245500960559        1.20600907433424        0.22779001351851
N           45.82720794676682        1.34822095567459        0.39631514931855
H           42.77121039088431       -2.58869042598880       -0.48325758574976
H           44.68161958336275       -4.36470346233771       -1.16718032672486
H           45.98330666090381       -4.05745442058218       -3.50542144450053
H           46.00133844073460       -6.34848761235059       -4.42536088395852
H           48.57246677040918       -7.60608320687815       -1.22721502487941
H           48.54589339700976       -5.31430919568574       -0.30930426987743
H           49.83872396524453       -3.91716511550238       -2.20812327397032
H           51.72562547164993       -2.13388236864458       -1.48049611970651
H           51.69362085344342        2.23228276752472        1.42115507369213
H           49.78180085214937        3.98899602443865        2.14919810378359
H           45.90937643010275        4.09739559898616        3.41438250135683
H           45.89141909320963        6.39318616204818        4.32255137464497
H           48.48360221221247        7.66356507742997        1.14646296918076
H           48.49232767152960        5.36726861056004        0.23981310894985
H           44.62693627567992        4.38252900114217        1.06881712657701
H           42.74056653792404        2.58537049398909        0.37416559188533

          :  Hamiltonian                  GFN1-xTB          :
         :: total energy            -342.217296865842 Eh    ::
         :: gradient norm              0.000938130912 Eh/a0 ::
         :: HOMO-LUMO gap              0.059099725327 eV    ::
         :: SCC energy              -348.297543527644 Eh    ::
         :: repulsion energy           6.252947749306 Eh    ::

    * Orbital Energies and Occupations

         #    Occupation            Energy/Eh            Energy/eV
      -------------------------------------------------------------
         1        2.0000           -0.7847135             -21.3531
       ...           ...                  ...                  ...
       306        2.0000           -0.4081926             -11.1075
       307        2.0000           -0.4069908             -11.0748
       308        1.9936           -0.4019638             -10.9380
       309        1.9928           -0.4018540             -10.9350
       310        1.9924           -0.4018062             -10.9337
       311        1.9882           -0.4013875             -10.9223
       312        1.9639           -0.4003088             -10.8930
       313        1.9550           -0.4000967             -10.8872
       314        1.9469           -0.3999354             -10.8828
       315        1.9416           -0.3998423             -10.8803
       316        1.9370           -0.3997673             -10.8782
       317        1.9313           -0.3996830             -10.8759
       318        1.3728           -0.3972572             -10.8099 (HOMO)
       319        0.3640           -0.3950853             -10.7508 (LUMO)
       320        0.3303           -0.3949737             -10.7478
       321        0.2902           -0.3948281             -10.7438
       322                         -0.3572902              -9.7224
       323                         -0.3474769              -9.4553
       324                         -0.3444129              -9.3720
       325                         -0.3435223              -9.3477
       326                         -0.3417101              -9.2984
       327                         -0.3405591              -9.2671
       328                         -0.3263311              -8.8799
       329                         -0.3189418              -8.6788
       ...                                ...                  ...
       671                          1.5873011              43.1927
      -------------------------------------------------------------
                  HL-Gap            0.0021719 Eh            0.0591 eV

Wiberg/Mayer (AO) data.
largest (>0.10) Wiberg bond orders for each atom

     #   Z sym  total        # sym  WBO       # sym  WBO       # sym  WBO
 ---------------------------------------------------------------------------
     1  26 Fe   3.108 --     7 N    0.667    41 N    0.666    27 N    0.660
                            20 N    0.658
     2   6 C    3.919 --    40 C    1.364     3 C    1.363    42 H    0.970
     3   6 C    3.923 --     2 C    1.363     7 N    1.208     4 C    1.173
     4   6 C    3.959 --     5 C    1.649     3 C    1.173    43 H    0.975
     5   6 C    3.961 --     4 C    1.649     6 C    1.174    44 H    0.973
     6   6 C    3.920 --     8 C    1.312     7 N    1.225     5 C    1.174
     7   7 N    3.380 --     6 C    1.225     3 C    1.208     1 Fe   0.667
     8   6 C    3.922 --    17 C    1.332     6 C    1.312     9 C    1.031
     9   6 C    3.963 --    16 C    1.385    10 C    1.385     8 C    1.031
    10   6 C    3.987 --    11 C    1.464     9 C    1.385    45 H    0.971
                            15 C    0.102
    11   6 C    3.993 --    10 C    1.464    12 C    1.364    46 H    0.972
                            16 C    0.102
    12   6 C    3.984 --    15 C    1.364    11 C    1.364    13 C    1.098
    13   6 C    3.958 --    14 N    2.820    12 C    1.098
    14   7 N    2.973 --    13 C    2.820
    15   6 C    3.993 --    16 C    1.463    12 C    1.364    47 H    0.972
                            10 C    0.102
    16   6 C    3.987 --    15 C    1.463     9 C    1.385    48 H    0.971
                            11 C    0.102
    17   6 C    3.917 --     8 C    1.332    20 N    1.200    18 C    1.179
    18   6 C    3.956 --    19 C    1.638    17 C    1.179    49 H    0.973
    19   6 C    3.959 --    18 C    1.638    21 C    1.188    50 H    0.973
    20   7 N    3.378 --    21 C    1.244    17 C    1.200     1 Fe   0.658
    21   6 C    3.901 --    22 C    1.249    20 N    1.244    19 C    1.188
    22   6 C    3.920 --    21 C    1.249    23 C    1.248   117 C    1.208
    23   6 C    3.901 --    22 C    1.248    27 N    1.246    24 C    1.188
    24   6 C    3.960 --    25 C    1.638    23 C    1.188    51 H    0.973
    25   6 C    3.956 --    24 C    1.638    26 C    1.179    52 H    0.973
    26   6 C    3.917 --    28 C    1.334    27 N    1.199    25 C    1.179
    27   7 N    3.378 --    23 C    1.246    26 C    1.199     1 Fe   0.660
    28   6 C    3.922 --    26 C    1.334    37 C    1.310    29 C    1.031
    29   6 C    3.963 --    36 C    1.385    30 C    1.385    28 C    1.031
    30   6 C    3.987 --    31 C    1.464    29 C    1.385    53 H    0.971
                            35 C    0.102
    31   6 C    3.993 --    30 C    1.464    32 C    1.364    54 H    0.972
                            36 C    0.102
    32   6 C    3.984 --    35 C    1.364    31 C    1.364    33 C    1.098
    33   6 C    3.958 --    34 N    2.820    32 C    1.098
    34   7 N    2.973 --    33 C    2.820
    35   6 C    3.993 --    36 C    1.463    32 C    1.364    55 H    0.972
                            30 C    0.102
    36   6 C    3.987 --    35 C    1.463    29 C    1.385    56 H    0.971
                            31 C    0.102
    37   6 C    3.920 --    28 C    1.310    41 N    1.226    38 C    1.175
    38   6 C    3.961 --    39 C    1.649    37 C    1.175    57 H    0.973
    39   6 C    3.958 --    38 C    1.649    40 C    1.173    58 H    0.975
    40   6 C    3.923 --     2 C    1.364    41 N    1.207    39 C    1.173
    41   7 N    3.379 --    37 C    1.226    40 C    1.207     1 Fe   0.666
    42   1 H    1.000 --     2 C    0.970
    43   1 H    0.997 --     4 C    0.975
    44   1 H    1.004 --     5 C    0.973
    45   1 H    1.003 --    10 C    0.971
    46   1 H    1.000 --    11 C    0.972
    47   1 H    1.000 --    15 C    0.972
    48   1 H    1.003 --    16 C    0.971
    49   1 H    1.004 --    18 C    0.973
    50   1 H    1.001 --    19 C    0.973
    51   1 H    1.001 --    24 C    0.973
    52   1 H    1.004 --    25 C    0.973
    53   1 H    1.003 --    30 C    0.971
    54   1 H    1.000 --    31 C    0.972
    55   1 H    1.000 --    35 C    0.972
    56   1 H    1.003 --    36 C    0.971
    57   1 H    1.004 --    38 C    0.973
    58   1 H    0.997 --    39 C    0.975
    59  26 Fe   3.141 --    99 N    0.674    65 N    0.669    78 N    0.667
                            85 N    0.663
    60   6 C    3.926 --    98 C    1.365    61 C    1.363   100 H    0.970
    61   6 C    3.923 --    60 C    1.363    65 N    1.208    62 C    1.173
    62   6 C    3.958 --    63 C    1.650    61 C    1.173   101 H    0.975
    63   6 C    3.961 --    62 C    1.650    64 C    1.174   102 H    0.973
    64   6 C    3.920 --    66 C    1.315    65 N    1.223    63 C    1.174
    65   7 N    3.383 --    64 C    1.223    61 C    1.208    59 Fe   0.669
    66   6 C    3.929 --    75 C    1.331    64 C    1.315    67 C    1.030
    67   6 C    3.963 --    74 C    1.385    68 C    1.385    66 C    1.030
    68   6 C    3.987 --    69 C    1.463    67 C    1.385   103 H    0.971
                            73 C    0.102
    69   6 C    3.993 --    68 C    1.463    70 C    1.364   104 H    0.972
                            74 C    0.102
    70   6 C    3.985 --    73 C    1.364    69 C    1.364    71 C    1.098
    71   6 C    3.958 --    72 N    2.820    70 C    1.098
    72   7 N    2.973 --    71 C    2.820
    73   6 C    3.993 --    74 C    1.463    70 C    1.364   105 H    0.972
                            68 C    0.102
    74   6 C    3.987 --    73 C    1.463    67 C    1.385   106 H    0.971
                            69 C    0.102
    75   6 C    3.916 --    66 C    1.331    78 N    1.201    76 C    1.179
    76   6 C    3.956 --    77 C    1.639    75 C    1.179   107 H    0.973
    77   6 C    3.959 --    76 C    1.639    79 C    1.187   108 H    0.973
    78   7 N    3.385 --    79 C    1.241    75 C    1.201    59 Fe   0.667
    79   6 C    3.902 --    80 C    1.255    78 N    1.241    77 C    1.187
    80   6 C    3.930 --    79 C    1.255    81 C    1.253   132 C    1.198
    81   6 C    3.902 --    80 C    1.253    85 N    1.242    82 C    1.188
    82   6 C    3.959 --    83 C    1.638    81 C    1.188   109 H    0.973
    83   6 C    3.956 --    82 C    1.638    84 C    1.179   110 H    0.973
    84   6 C    3.916 --    86 C    1.332    85 N    1.200    83 C    1.179
    85   7 N    3.383 --    81 C    1.242    84 C    1.200    59 Fe   0.663
    86   6 C    3.929 --    84 C    1.332    95 C    1.314    87 C    1.030
    87   6 C    3.963 --    94 C    1.386    88 C    1.385    86 C    1.030
    88   6 C    3.987 --    89 C    1.464    87 C    1.385   111 H    0.971
                            93 C    0.102
    89   6 C    3.993 --    88 C    1.464    90 C    1.364   112 H    0.972
                            94 C    0.102
    90   6 C    3.985 --    93 C    1.365    89 C    1.364    91 C    1.098
    91   6 C    3.958 --    92 N    2.820    90 C    1.098
    92   7 N    2.973 --    91 C    2.820
    93   6 C    3.993 --    94 C    1.463    90 C    1.365   113 H    0.972
                            88 C    0.102
    94   6 C    3.987 --    93 C    1.463    87 C    1.386   114 H    0.971
                            89 C    0.102
    95   6 C    3.920 --    86 C    1.314    99 N    1.224    96 C    1.174
    96   6 C    3.961 --    97 C    1.650    95 C    1.174   115 H    0.973
    97   6 C    3.958 --    96 C    1.650    98 C    1.172   116 H    0.975
    98   6 C    3.923 --    60 C    1.365    99 N    1.207    97 C    1.172
    99   7 N    3.385 --    95 C    1.224    98 C    1.207    59 Fe   0.674
   100   1 H    1.000 --    60 C    0.970
   101   1 H    0.997 --    62 C    0.975
   102   1 H    1.004 --    63 C    0.973
   103   1 H    1.003 --    68 C    0.971
   104   1 H    1.000 --    69 C    0.972
   105   1 H    1.000 --    73 C    0.972
   106   1 H    1.003 --    74 C    0.971
   107   1 H    1.004 --    76 C    0.973
   108   1 H    1.001 --    77 C    0.973
   109   1 H    1.001 --    82 C    0.973
   110   1 H    1.004 --    83 C    0.973
   111   1 H    1.003 --    88 C    0.971
   112   1 H    1.000 --    89 C    0.972
   113   1 H    1.000 --    93 C    0.972
   114   1 H    1.003 --    94 C    0.971
   115   1 H    1.004 --    96 C    0.973
   116   1 H    0.997 --    97 C    0.975
   117   6 C    3.862 --   118 C    2.408    22 C    1.208   120 C    0.182
   118   6 C    3.923 --   117 C    2.408   119 C    1.366
   119   6 C    3.879 --   120 C    2.301   118 C    1.366   122 C    0.177
   120   6 C    3.913 --   119 C    2.301   121 C    1.393   117 C    0.182
   121   6 C    3.912 --   122 C    2.300   120 C    1.393   124 C    0.181
   122   6 C    3.880 --   121 C    2.300   123 C    1.368   119 C    0.177
   123   6 C    3.919 --   124 C    2.404   122 C    1.368
   124   6 C    3.863 --   123 C    2.404   134 C    1.212   121 C    0.181
   125   6 C    3.866 --   126 C    2.415   154 C    1.205   128 C    0.182
   126   6 C    3.921 --   125 C    2.415   127 C    1.359
   127   6 C    3.882 --   128 C    2.312   126 C    1.359   130 C    0.178
   128   6 C    3.913 --   127 C    2.312   129 C    1.383   125 C    0.182
   129   6 C    3.916 --   130 C    2.315   128 C    1.383   132 C    0.183
   130   6 C    3.881 --   129 C    2.315   131 C    1.356   127 C    0.178
   131   6 C    3.927 --   132 C    2.421   130 C    1.356
   132   6 C    3.865 --   131 C    2.421    80 C    1.198   129 C    0.183
   133  26 Fe   3.064 --   159 N    0.651   152 N    0.651   139 N    0.650
                           173 N    0.650
   134   6 C    3.907 --   135 C    1.245   172 C    1.245   124 C    1.212
   135   6 C    3.902 --   139 N    1.248   134 C    1.245   136 C    1.190
   136   6 C    3.959 --   137 C    1.635   135 C    1.190   174 H    0.973
   137   6 C    3.958 --   136 C    1.635   138 C    1.182   175 H    0.973
   138   6 C    3.914 --   140 C    1.324   139 N    1.204   137 C    1.182
   139   7 N    3.368 --   135 C    1.248   138 C    1.204   133 Fe   0.650
   140   6 C    3.915 --   138 C    1.324   149 C    1.320   141 C    1.031
   141   6 C    3.963 --   142 C    1.385   148 C    1.385   140 C    1.031
   142   6 C    3.987 --   143 C    1.463   141 C    1.385   176 H    0.971
                           147 C    0.102
   143   6 C    3.993 --   142 C    1.463   144 C    1.365   177 H    0.972
                           148 C    0.102
   144   6 C    3.984 --   143 C    1.365   147 C    1.364   145 C    1.098
   145   6 C    3.958 --   146 N    2.821   144 C    1.098
   146   7 N    2.974 --   145 C    2.821
   147   6 C    3.993 --   148 C    1.463   144 C    1.364   178 H    0.972
                           142 C    0.102
   148   6 C    3.987 --   147 C    1.463   141 C    1.385   179 H    0.971
                           143 C    0.102
   149   6 C    3.914 --   140 C    1.320   152 N    1.206   150 C    1.182
   150   6 C    3.958 --   151 C    1.634   149 C    1.182   180 H    0.973
   151   6 C    3.959 --   150 C    1.634   153 C    1.190   181 H    0.973
   152   7 N    3.369 --   153 C    1.244   149 C    1.206   133 Fe   0.651
   153   6 C    3.903 --   154 C    1.249   152 N    1.244   151 C    1.190
   154   6 C    3.908 --   153 C    1.249   155 C    1.249   125 C    1.205
   155   6 C    3.903 --   154 C    1.249   159 N    1.245   156 C    1.190
   156   6 C    3.959 --   157 C    1.634   155 C    1.190   182 H    0.973
   157   6 C    3.958 --   156 C    1.634   158 C    1.182   183 H    0.973
   158   6 C    3.914 --   160 C    1.320   159 N    1.206   157 C    1.182
   159   7 N    3.369 --   155 C    1.245   158 C    1.206   133 Fe   0.651
   160   6 C    3.915 --   169 C    1.324   158 C    1.320   161 C    1.031
   161   6 C    3.963 --   162 C    1.385   168 C    1.385   160 C    1.031
   162   6 C    3.987 --   163 C    1.463   161 C    1.385   184 H    0.971
                           167 C    0.102
   163   6 C    3.993 --   162 C    1.463   164 C    1.365   185 H    0.972
                           168 C    0.102
   164   6 C    3.984 --   163 C    1.365   167 C    1.364   165 C    1.098
   165   6 C    3.958 --   166 N    2.821   164 C    1.098
   166   7 N    2.974 --   165 C    2.821
   167   6 C    3.993 --   168 C    1.463   164 C    1.364   186 H    0.972
                           162 C    0.102
   168   6 C    3.987 --   167 C    1.463   161 C    1.385   187 H    0.971
                           163 C    0.102
   169   6 C    3.914 --   160 C    1.324   173 N    1.204   170 C    1.182
   170   6 C    3.958 --   171 C    1.634   169 C    1.182   188 H    0.973
   171   6 C    3.959 --   170 C    1.634   172 C    1.190   189 H    0.973
   172   6 C    3.902 --   173 N    1.248   134 C    1.245   171 C    1.190
   173   7 N    3.368 --   172 C    1.248   169 C    1.204   133 Fe   0.650
   174   1 H    1.001 --   136 C    0.973
   175   1 H    1.003 --   137 C    0.973
   176   1 H    1.003 --   142 C    0.971
   177   1 H    1.000 --   143 C    0.972
   178   1 H    1.000 --   147 C    0.972
   179   1 H    1.003 --   148 C    0.971
   180   1 H    1.003 --   150 C    0.973
   181   1 H    1.001 --   151 C    0.973
   182   1 H    1.001 --   156 C    0.973
   183   1 H    1.003 --   157 C    0.973
   184   1 H    1.003 --   162 C    0.971
   185   1 H    1.000 --   163 C    0.972
   186   1 H    1.000 --   167 C    0.972
   187   1 H    1.003 --   168 C    0.971
   188   1 H    1.003 --   170 C    0.973
   189   1 H    1.001 --   171 C    0.973
 ---------------------------------------------------------------------------

           -------------------------------------------------
          | TOTAL ENERGY             -342.217296865842 Eh   |
          | GRADIENT NORM               0.000938130912 Eh/α |
          | HOMO-LUMO GAP               0.059099725327 eV   |
           -------------------------------------------------

 * finished run on 2022/07/30 at 00:51:52.330
