   * xtb version 6.5.1 (b24c23e) compiled by 'conda@728c89f4b128' on 2022-07-12
          program call               : xtb Ni_H_C6_4.xyz --gfn 1 --opt -T 48

   ID    Z sym.   atoms
    1   28 Ni     1, 37, 91, 126
    2    6 C      2-6, 8-11, 13-18, 20-24, 38-42, 44-47, 49-54, 56-60, 73-90,
                  92-96, 98-101, 103-108, 110-114, 127-131, 133-136, 138-143,
                  145-149
    3    7 N      7, 12, 19, 25, 43, 48, 55, 61, 97, 102, 109, 115, 132, 137,
                  144, 150
    4    1 H      26-36, 62-72, 116-125, 151-160

          :  Hamiltonian                  GFN1-xTB          :
 * total energy  :  -295.9396275 Eh     change       -0.4102105E-08 Eh
 * total energy  :  -296.3535721 Eh     change       -0.4139447E+00 Eh
 * total energy  :  -296.4853984 Eh     change       -0.1318263E+00 Eh
 * total energy  :  -296.5383320 Eh     change       -0.5293354E-01 Eh
 * total energy  :  -296.5616055 Eh     change       -0.2327351E-01 Eh
 * total energy  :  -296.5813019 Eh     change       -0.1969644E-01 Eh
 * total energy  :  -296.6037390 Eh     change       -0.2243715E-01 Eh
 * total energy  :  -296.6304305 Eh     change       -0.2669145E-01 Eh
 * total energy  :  -296.6645493 Eh     change       -0.3411880E-01 Eh
 * total energy  :  -296.7068051 Eh     change       -0.4225581E-01 Eh
 * total energy  :  -297.0058210 Eh     change       -0.1233439E-03 Eh
 * total energy  :  -297.0058614 Eh     change       -0.4043080E-04 Eh
 * total energy  :  -297.0058908 Eh     change       -0.2935312E-04 Eh
 * total energy  :  -297.0059247 Eh     change       -0.3396788E-04 Eh
 * total energy  :  -297.0059329 Eh     change       -0.8159317E-05 Eh
 * total energy  :  -297.0059449 Eh     change       -0.1196487E-04 Eh
 * total energy  :  -297.0059496 Eh     change       -0.4710614E-05 Eh
 * total energy  :  -297.0059547 Eh     change       -0.5155606E-05 Eh
 * total energy  :  -297.0059582 Eh     change       -0.3452216E-05 Eh
   *** GEOMETRY OPTIMIZATION CONVERGED AFTER 58 ITERATIONS ***

 final structure:
================
160
 xtb: 6.5.1 (b24c23e)
Ni          20.39001415497995       -0.02186707121811       -0.02056512009396
C           16.97881297076365       -0.03725834440495       -0.04759256630855
C           17.63948768157376       -0.89393459775972       -0.90377866172759
C           16.97166579893742       -1.78923009429666       -1.80191859129016
C           17.93749515195478       -2.46285623257114       -2.46902036512259
C           19.19258937600384       -1.97660146941178       -1.97745659059603
N           19.00093317274695       -1.01521723889998       -1.01832176621611
C           20.41628676827415       -2.42914633970004       -2.42567617733815
C           21.62883730408491       -1.96451885833075       -1.96195567529863
C           22.89122007971866       -2.44027072591461       -2.43890149765434
C           23.84413923280195       -1.75734270891589       -1.76072800921008
N           21.80504235150030       -0.99821397117591       -0.99852397925884
C           23.15976906178249       -0.86882005239205       -0.87264747123493
C           23.82115383482758        0.00328525842510       -0.00297221511105
C           23.13823928738889        0.86344830932200        0.86174075873115
C           23.80051811618604        1.75837695283432        1.76005755553958
C           22.83086891079725        2.42198031768703        2.43370565432904
C           21.58045279765566        1.92939089930932        1.94240605484407
N           21.78056744087952        0.97113512600693        0.97563050264352
C           20.35651745836190        2.37477472766024        2.39501482401215
C           19.14420952692753        1.91158994206758        1.92709328083193
C           17.87711827419819        2.38438070488165        2.40078563307284
C           16.92810926352897        1.70782582516466        1.71285279676585
C           17.61811180940217        0.82266779897631        0.82145407936587
N           18.97643820382908        0.95422061647422        0.95953342282176
H           15.89509980805130       -0.04131772496677       -0.05698678658526
H           15.90033540625031       -1.87444321896115       -1.89265830324995
H           17.83309824407911       -3.22224569876753       -3.22776436024703
H           20.42603439563317       -3.19655594764210       -3.19106914045065
H           23.01163148412095       -3.19891942393608       -3.19577691249804
H           24.91656293693323       -1.83462635948862       -1.84053986422282
H           24.87088411191077        1.85199273257376        1.84967507623627
H           22.93233899091976        3.17836703620595        3.19561007272319
H           20.34713681944411        3.13743350848664        3.16514568561171
H           17.75388908842760        3.13823696002086        3.16221691548233
H           15.85474546615980        1.78417117371590        1.78574432238485
Ni          68.51945742844343        0.01072137871168        0.00425766252562
C           71.92030451727302        0.02271857534925       -0.22864001643174
C           71.26499496390871        1.23693177300289       -0.21683894700769
C           71.93566411102128        2.50207670604492       -0.27956966703274
C           70.97832189103707        3.45464269215757       -0.19053535160111
C           69.72382331471744        2.76929416388500       -0.09021924861864
N           69.90892510118744        1.41049132826797       -0.10588386714302
C           68.50461462264312        3.41104618492272       -0.01808034019711
C           67.28975508415562        2.75877973202166        0.00607739858148
C           66.02902084590832        3.43579361193567        0.00548827757408
C           65.07357419591244        2.47611958288576       -0.02128509819418
N           67.10949257818416        1.39514191144995       -0.00535123246447
C           65.75429024386035        1.21788419563743       -0.02141751333679
C           65.09100536934874       -0.01250237169258       -0.01250592257014
C           65.77114968626188       -1.23116084066610        0.06442932411432
C           65.10695907072740       -2.49484426705172        0.15762216071456
C           66.07442980662076       -3.43574145562134        0.27290906202525
C           67.32608615043048       -2.74338902713424        0.23297967406479
N           67.12834284887997       -1.38783687349985        0.10655084080887
C           68.54948603622368       -3.37783888960313        0.28442905289968
C           69.76124101431719       -2.72806678734234        0.17058437131102
C           71.02578350752526       -3.40181245916667        0.14726106321156
C           71.97077852619074       -2.44878495591269       -0.02760903717292
C           71.28244896222712       -1.19335038763356       -0.09366870687937
N           69.92826368908746       -1.37448557557974        0.02682773941255
H           73.00029387566801        0.02590405676801       -0.31897182470527
H           73.00366348843436        2.62167278962243       -0.37091476462297
H           71.08782081578720        4.52760040412507       -0.19766160480053
H           68.49927272529872        4.49486949497520       -0.00852005396637
H           65.91134170439290        4.50769134284341        0.01547156681895
H           64.00150721830629        2.59019540028965       -0.03376884676931
H           64.03668654861737       -2.62439879951338        0.14349626329904
H           65.97068655525466       -4.50479053295657        0.36930085637329
H           68.55802168975643       -4.45643341116030        0.39116413379234
H           71.14981592418287       -4.46873517941502        0.24506598536181
H           73.04099065218907       -2.56144802821940       -0.09991984692043
C           29.02229079028039        0.00949592019436        0.01225726983406
C           27.79444678501743        0.01297832542867        0.00981314186441
C           26.44948972655137        0.01473556768620        0.00651563370526
C           25.22616910316725        0.01290770177993        0.00329776619887
C           30.36712436428442        0.00482460576174        0.01117310605418
C           31.59055478771836       -0.00191796212103        0.00907572252285
C           45.06957143281168       -0.01509037235533       -0.02948908866578
C           43.84164503330927       -0.01453843918813       -0.02967099235332
C           42.49695925641777       -0.01464089187561       -0.02828780589243
C           41.27336564726717       -0.01365432830113       -0.02948307756064
C           46.41427046716527       -0.01733062409816       -0.03004096819074
C           47.63786294710254       -0.02044654404568       -0.03249023800389
C           61.11737488629777       -0.04495544086815       -0.07448263992519
C           59.88984933210217       -0.05099839863975       -0.07695894628131
C           58.54439607212280       -0.06014182918877       -0.07307434607713
C           57.32110047726882       -0.06630700762008       -0.06579109182505
C           62.46282840666786       -0.03372441432450       -0.06359565894450
C           63.68565960463717       -0.02291869852085       -0.04318007052331
Ni          36.43201988053185       -0.00833478856178       -0.00977183877617
C           32.99506209906672       -0.00547377161301        0.00581613601733
C           33.67282037187945        0.90695120553528        0.82002947791378
C           33.00472083713245        1.84778212482168        1.66496581020446
C           33.97023835745316        2.55895989073883        2.29515694185327
C           35.22289301357555        2.04804399587982        1.83101079933601
N           35.02964766264661        1.03143565000342        0.92460010369751
C           36.44434205463343        2.53005979946943        2.25145995055402
C           37.66101460817320        2.05003131732145        1.81550030024217
C           38.91867467570174        2.56272510939604        2.26401749022390
C           39.87727902761331        1.84923794701956        1.62598891769348
N           37.84450751579761        1.03137013438404        0.90927330970678
C           39.20003589334089        0.90561933054731        0.79144142536703
C           39.86898048682806       -0.01119867105674       -0.02528961763971
C           39.19114589527303       -0.92529847127481       -0.83766656331818
C           39.85927434997289       -1.86765765826778       -1.68094115985010
C           38.89376988960873       -2.57817354577776       -2.31183845086699
C           37.64102819568752       -2.06556321753703       -1.84952910436460
N           37.83438643053099       -1.04886767802291       -0.94320189395329
C           36.41969830578694       -2.54582408359242       -2.27205965492702
C           35.20291231559158       -2.06471252597975       -1.83725362627505
C           33.94520221588392       -2.57588467719650       -2.28732234083078
C           32.98668969845147       -1.86274698293512       -1.64871557395762
C           33.66405202101635       -0.92072849335924       -0.81251881984327
N           35.01960873150743       -1.04719025920582       -0.92982470549358
H           31.93382897368588        1.93762700813737        1.75154042221294
H           33.86390994309527        3.35870836847293        3.01065385429045
H           36.44834835706480        3.33956826321257        2.97235628941856
H           39.03271492037267        3.36497739813496        2.97551631921951
H           40.94903873351095        1.93945208986180        1.70063343506549
H           40.93019517360378       -1.95860002679169       -1.76615979766106
H           38.99991296565418       -3.37844827563333       -3.02678576855485
H           36.41585919627229       -3.35488692195627       -2.99345035499745
H           33.83103434746827       -3.37704194992452       -3.00003543692701
H           31.91489378509463       -1.95217778928935       -1.72388060829540
Ni          52.47918104485353       -0.05641793459747       -0.03491184223385
C           49.04228258213782       -0.02960164904876       -0.03353302500039
C           49.72303414569142        0.87871971405987        0.78279129546483
C           49.05811391556581        1.82401140561202        1.62533577165001
C           50.02601648253486        2.52897234052590        2.25878291612122
C           51.27703097033181        2.01041086755026        1.79840499077145
N           51.08024598314563        0.99476527064930        0.89164706496738
C           52.49996541030283        2.48814396353636        2.21909511591005
C           53.71507748810868        2.00531297594191        1.78146439225737
C           54.97450515010629        2.51945083092231        2.22346515728303
C           55.93057182501872        1.80511736360360        1.58272995657874
N           53.89488974304677        0.98386144097566        0.87794956280905
C           55.25013723796221        0.85744418350967        0.75525835567956
C           55.91589539521908       -0.06923322467427       -0.05241475580551
C           55.23550187572009       -0.99647126591054       -0.84671449911823
C           55.90037594622653       -1.95585129222195       -1.67329357848790
C           54.93245905006322       -2.67041083239090       -2.29575621006278
C           53.68145364638956       -2.14192816212814       -1.84669941655802
N           53.87803965570041       -1.11435338047854       -0.95373670997333
C           52.45846963231249       -2.61338728063266       -2.27476677248276
C           51.24346239899555       -2.11378237531255       -1.85652487355855
C           49.98414357855551       -2.61277354048752       -2.31590259016158
C           49.02796637970046       -1.88704585155145       -1.68816666818642
C           49.70822962976938       -0.94977168077490       -0.84891530174555
N           51.06331715366867       -1.08959675355189       -0.95596332156163
H           47.98751926632769        1.92108459650809        1.70793070632202
H           49.92250897292991        3.32975297085365        2.97355196354645
H           52.50658673191862        3.29860691169778        2.93888580798838
H           55.09132004765736        3.32349783781167        2.93246497686108
H           57.00261674492579        1.89525661066253        1.65316113348452
H           56.97099428110452       -2.05477082288243       -1.75326309302888
H           55.03580490720003       -3.48220464220049       -2.99799249194818
H           52.45176634894214       -3.42904883524324       -2.98866112450386
H           49.86739610781068       -3.41514870414493       -3.02682067685504
H           47.95596867545386       -1.96518236462084       -1.77253272305790

          :  Hamiltonian                  GFN1-xTB          :
         :: total energy            -297.005958189396 Eh    ::
         :: gradient norm              0.000751583712 Eh/a0 ::
         :: HOMO-LUMO gap              1.022280287676 eV    ::
         :: SCC energy              -301.970889601840 Eh    ::
         :: repulsion energy           5.103743805008 Eh    ::

    * Orbital Energies and Occupations

         #    Occupation            Energy/Eh            Energy/eV
      -------------------------------------------------------------
         1        2.0000           -0.7839331             -21.3319
       ...           ...                  ...                  ...
       265        2.0000           -0.3996143             -10.8741
       266        2.0000           -0.3995796             -10.8731
       267        2.0000           -0.3994291             -10.8690
       268        2.0000           -0.3994178             -10.8687
       269        2.0000           -0.3987848             -10.8515
       270        2.0000           -0.3985720             -10.8457
       271        2.0000           -0.3978602             -10.8263
       272        2.0000           -0.3977372             -10.8230
       273        2.0000           -0.3976524             -10.8207
       274        2.0000           -0.3975292             -10.8173
       275        2.0000           -0.3948233             -10.7437
       276        2.0000           -0.3898569             -10.6085
       277        2.0000           -0.3847077             -10.4684 (HOMO)
       278                         -0.3471396              -9.4461 (LUMO)
       279                         -0.3406267              -9.2689
       280                         -0.3346644              -9.1067
       281                         -0.3331057              -9.0643
       282                         -0.3330863              -9.0637
       283                         -0.3322823              -9.0419
       284                         -0.3322668              -9.0414
       285                         -0.3309662              -9.0060
       286                         -0.3308698              -9.0034
       287                         -0.3307165              -8.9993
       288                         -0.3307122              -8.9991
       ...                                ...                  ...
       576                          1.5780481              42.9409
      -------------------------------------------------------------
                  HL-Gap            0.0375681 Eh            1.0223 eV

Wiberg/Mayer (AO) data.
largest (>0.10) Wiberg bond orders for each atom

     #   Z sym  total        # sym  WBO       # sym  WBO       # sym  WBO
 ---------------------------------------------------------------------------
     1  28 Ni   3.011 --    25 N    0.665     7 N    0.664    12 N    0.661
                            19 N    0.661
     2   6 C    3.939 --    24 C    1.365     3 C    1.365    26 H    0.970
     3   6 C    3.923 --     2 C    1.365     7 N    1.218     4 C    1.170
     4   6 C    3.960 --     5 C    1.655     3 C    1.170    27 H    0.975
     5   6 C    3.962 --     4 C    1.655     6 C    1.171    28 H    0.975
     6   6 C    3.921 --     8 C    1.363     7 N    1.218     5 C    1.171
     7   7 N    3.406 --     3 C    1.218     6 C    1.218     1 Ni   0.664
     8   6 C    3.944 --     9 C    1.370     6 C    1.363    29 H    0.970
     9   6 C    3.916 --     8 C    1.370    12 N    1.202    10 C    1.177
    10   6 C    3.958 --    11 C    1.643     9 C    1.177    30 H    0.975
    11   6 C    3.961 --    10 C    1.643    13 C    1.186    31 H    0.973
    12   7 N    3.410 --    13 C    1.244     9 C    1.202     1 Ni   0.661
    13   6 C    3.903 --    14 C    1.264    12 N    1.244    11 C    1.186
    14   6 C    3.948 --    15 C    1.264    13 C    1.264    76 C    1.184
    15   6 C    3.903 --    14 C    1.264    19 N    1.244    16 C    1.186
    16   6 C    3.961 --    17 C    1.643    15 C    1.186    32 H    0.973
    17   6 C    3.958 --    16 C    1.643    18 C    1.177    33 H    0.975
    18   6 C    3.916 --    20 C    1.370    19 N    1.202    17 C    1.177
    19   7 N    3.410 --    15 C    1.244    18 C    1.202     1 Ni   0.661
    20   6 C    3.944 --    18 C    1.370    21 C    1.363    34 H    0.970
    21   6 C    3.921 --    20 C    1.363    25 N    1.218    22 C    1.171
    22   6 C    3.962 --    23 C    1.655    21 C    1.171    35 H    0.975
    23   6 C    3.960 --    22 C    1.655    24 C    1.170    36 H    0.975
    24   6 C    3.923 --     2 C    1.365    25 N    1.218    23 C    1.170
    25   7 N    3.406 --    24 C    1.218    21 C    1.218     1 Ni   0.665
    26   1 H    1.000 --     2 C    0.970
    27   1 H    0.997 --     4 C    0.975
    28   1 H    0.997 --     5 C    0.975
    29   1 H    1.000 --     8 C    0.970
    30   1 H    0.997 --    10 C    0.975
    31   1 H    1.002 --    11 C    0.973
    32   1 H    1.002 --    16 C    0.973
    33   1 H    0.997 --    17 C    0.975
    34   1 H    1.000 --    20 C    0.970
    35   1 H    0.997 --    22 C    0.975
    36   1 H    0.997 --    23 C    0.975
    37  28 Ni   3.013 --    43 N    0.665    61 N    0.665    55 N    0.662
                            48 N    0.661
    38   6 C    3.940 --    39 C    1.365    60 C    1.364    62 H    0.970
    39   6 C    3.923 --    38 C    1.365    43 N    1.218    40 C    1.170
    40   6 C    3.960 --    41 C    1.655    39 C    1.170    63 H    0.975
    41   6 C    3.962 --    40 C    1.655    42 C    1.171    64 H    0.975
    42   6 C    3.921 --    44 C    1.363    43 N    1.217    41 C    1.171
    43   7 N    3.406 --    39 C    1.218    42 C    1.217    37 Ni   0.665
    44   6 C    3.944 --    45 C    1.369    42 C    1.363    65 H    0.970
    45   6 C    3.916 --    44 C    1.369    48 N    1.202    46 C    1.177
    46   6 C    3.958 --    47 C    1.643    45 C    1.177    66 H    0.975
    47   6 C    3.961 --    46 C    1.643    49 C    1.186    67 H    0.973
    48   7 N    3.410 --    49 C    1.243    45 C    1.202    37 Ni   0.661
    49   6 C    3.904 --    50 C    1.265    48 N    1.243    47 C    1.186
    50   6 C    3.949 --    51 C    1.265    49 C    1.265    90 C    1.181
    51   6 C    3.904 --    50 C    1.265    55 N    1.243    52 C    1.186
    52   6 C    3.961 --    53 C    1.643    51 C    1.186    68 H    0.973
    53   6 C    3.958 --    52 C    1.643    54 C    1.177    69 H    0.975
    54   6 C    3.916 --    56 C    1.369    55 N    1.202    53 C    1.177
    55   7 N    3.410 --    51 C    1.243    54 C    1.202    37 Ni   0.662
    56   6 C    3.944 --    54 C    1.369    57 C    1.363    70 H    0.970
    57   6 C    3.921 --    56 C    1.363    61 N    1.217    58 C    1.171
    58   6 C    3.962 --    59 C    1.655    57 C    1.171    71 H    0.975
    59   6 C    3.960 --    58 C    1.655    60 C    1.170    72 H    0.975
    60   6 C    3.923 --    38 C    1.364    61 N    1.218    59 C    1.170
    61   7 N    3.406 --    60 C    1.218    57 C    1.217    37 Ni   0.665
    62   1 H    1.000 --    38 C    0.970
    63   1 H    0.998 --    40 C    0.975
    64   1 H    0.997 --    41 C    0.975
    65   1 H    1.000 --    44 C    0.970
    66   1 H    0.997 --    46 C    0.975
    67   1 H    1.002 --    47 C    0.973
    68   1 H    1.002 --    52 C    0.973
    69   1 H    0.997 --    53 C    0.975
    70   1 H    1.000 --    56 C    0.970
    71   1 H    0.997 --    58 C    0.975
    72   1 H    0.998 --    59 C    0.975
    73   6 C    3.928 --    74 C    2.374    77 C    1.331    76 C    0.191
    74   6 C    3.927 --    73 C    2.374    75 C    1.331    78 C    0.191
    75   6 C    3.939 --    76 C    2.457    74 C    1.331
    76   6 C    3.891 --    75 C    2.457    14 C    1.184    73 C    0.191
    77   6 C    3.936 --    78 C    2.455    73 C    1.331
    78   6 C    3.892 --    77 C    2.455    92 C    1.186    74 C    0.191
    79   6 C    3.927 --    80 C    2.373    83 C    1.332    82 C    0.191
    80   6 C    3.927 --    79 C    2.373    81 C    1.332    84 C    0.191
    81   6 C    3.936 --    82 C    2.454    80 C    1.332
    82   6 C    3.891 --    81 C    2.454   104 C    1.187    79 C    0.191
    83   6 C    3.936 --    84 C    2.454    79 C    1.332
    84   6 C    3.891 --    83 C    2.454   127 C    1.187    80 C    0.191
    85   6 C    3.926 --    86 C    2.378    89 C    1.328    88 C    0.191
    86   6 C    3.927 --    85 C    2.378    87 C    1.328    90 C    0.191
    87   6 C    3.936 --    88 C    2.458    86 C    1.328
    88   6 C    3.891 --    87 C    2.458   139 C    1.183    85 C    0.191
    89   6 C    3.939 --    90 C    2.460    85 C    1.328
    90   6 C    3.891 --    89 C    2.460    50 C    1.181    86 C    0.191
    91  28 Ni   2.996 --   115 N    0.660    97 N    0.660   109 N    0.660
                           102 N    0.660
    92   6 C    3.938 --    93 C    1.262   114 C    1.262    78 C    1.186
    93   6 C    3.903 --    92 C    1.262    97 N    1.245    94 C    1.187
    94   6 C    3.959 --    95 C    1.640    93 C    1.187   116 H    0.973
    95   6 C    3.959 --    94 C    1.640    96 C    1.180   117 H    0.975
    96   6 C    3.913 --    98 C    1.366    97 N    1.201    95 C    1.180
    97   7 N    3.404 --    93 C    1.245    96 C    1.201    91 Ni   0.660
    98   6 C    3.939 --    99 C    1.367    96 C    1.366   118 H    0.970
    99   6 C    3.913 --    98 C    1.367   102 N    1.201   100 C    1.179
   100   6 C    3.959 --   101 C    1.640    99 C    1.179   119 H    0.975
   101   6 C    3.959 --   100 C    1.640   103 C    1.187   120 H    0.973
   102   7 N    3.403 --   103 C    1.246    99 C    1.201    91 Ni   0.660
   103   6 C    3.903 --   104 C    1.261   102 N    1.246   101 C    1.187
   104   6 C    3.938 --   105 C    1.261   103 C    1.261    82 C    1.187
   105   6 C    3.903 --   104 C    1.261   109 N    1.246   106 C    1.187
   106   6 C    3.959 --   107 C    1.640   105 C    1.187   121 H    0.973
   107   6 C    3.959 --   106 C    1.640   108 C    1.179   122 H    0.975
   108   6 C    3.913 --   110 C    1.367   109 N    1.201   107 C    1.179
   109   7 N    3.403 --   105 C    1.246   108 C    1.201    91 Ni   0.660
   110   6 C    3.939 --   108 C    1.367   111 C    1.366   123 H    0.970
   111   6 C    3.913 --   110 C    1.366   115 N    1.201   112 C    1.180
   112   6 C    3.959 --   113 C    1.640   111 C    1.180   124 H    0.975
   113   6 C    3.959 --   112 C    1.640   114 C    1.187   125 H    0.973
   114   6 C    3.903 --    92 C    1.262   115 N    1.245   113 C    1.187
   115   7 N    3.404 --   114 C    1.245   111 C    1.201    91 Ni   0.660
   116   1 H    1.002 --    94 C    0.973
   117   1 H    0.997 --    95 C    0.975
   118   1 H    1.000 --    98 C    0.970
   119   1 H    0.997 --   100 C    0.975
   120   1 H    1.002 --   101 C    0.973
   121   1 H    1.002 --   106 C    0.973
   122   1 H    0.997 --   107 C    0.975
   123   1 H    1.000 --   110 C    0.970
   124   1 H    0.997 --   112 C    0.975
   125   1 H    1.002 --   113 C    0.973
   126  28 Ni   2.996 --   137 N    0.660   144 N    0.660   132 N    0.660
                           150 N    0.660
   127   6 C    3.939 --   128 C    1.261   149 C    1.261    84 C    1.187
   128   6 C    3.903 --   127 C    1.261   132 N    1.246   129 C    1.187
   129   6 C    3.959 --   130 C    1.640   128 C    1.187   151 H    0.973
   130   6 C    3.959 --   129 C    1.640   131 C    1.179   152 H    0.975
   131   6 C    3.914 --   133 C    1.367   132 N    1.201   130 C    1.179
   132   7 N    3.404 --   128 C    1.246   131 C    1.201   126 Ni   0.660
   133   6 C    3.939 --   131 C    1.367   134 C    1.366   153 H    0.970
   134   6 C    3.914 --   133 C    1.366   137 N    1.202   135 C    1.179
   135   6 C    3.959 --   136 C    1.641   134 C    1.179   154 H    0.975
   136   6 C    3.959 --   135 C    1.641   138 C    1.187   155 H    0.973
   137   7 N    3.404 --   138 C    1.245   134 C    1.202   126 Ni   0.660
   138   6 C    3.904 --   139 C    1.263   137 N    1.245   136 C    1.187
   139   6 C    3.938 --   140 C    1.263   138 C    1.263    88 C    1.183
   140   6 C    3.904 --   139 C    1.263   144 N    1.244   141 C    1.187
   141   6 C    3.959 --   142 C    1.641   140 C    1.187   156 H    0.973
   142   6 C    3.959 --   141 C    1.641   143 C    1.179   157 H    0.975
   143   6 C    3.914 --   145 C    1.366   144 N    1.202   142 C    1.179
   144   7 N    3.404 --   140 C    1.244   143 C    1.202   126 Ni   0.660
   145   6 C    3.939 --   146 C    1.367   143 C    1.366   158 H    0.970
   146   6 C    3.914 --   145 C    1.367   150 N    1.201   147 C    1.179
   147   6 C    3.959 --   148 C    1.641   146 C    1.179   159 H    0.975
   148   6 C    3.959 --   147 C    1.641   149 C    1.187   160 H    0.973
   149   6 C    3.903 --   127 C    1.261   150 N    1.246   148 C    1.187
   150   7 N    3.404 --   149 C    1.246   146 C    1.201   126 Ni   0.660
   151   1 H    1.002 --   129 C    0.973
   152   1 H    0.997 --   130 C    0.975
   153   1 H    1.000 --   133 C    0.970
   154   1 H    0.997 --   135 C    0.975
   155   1 H    1.002 --   136 C    0.973
   156   1 H    1.002 --   141 C    0.973
   157   1 H    0.997 --   142 C    0.975
   158   1 H    1.000 --   145 C    0.970
   159   1 H    0.997 --   147 C    0.975
   160   1 H    1.002 --   148 C    0.973
 ---------------------------------------------------------------------------

           -------------------------------------------------
          | TOTAL ENERGY             -297.005958189396 Eh   |
          | GRADIENT NORM               0.000751583712 Eh/α |
          | HOMO-LUMO GAP               1.022280287676 eV   |
           -------------------------------------------------

 * finished run on 2022/07/30 at 02:13:52.996
