   * xtb version 6.5.1 (b24c23e) compiled by 'conda@728c89f4b128' on 2022-07-12
          program call               : xtb Co_PhOH_C4_2.xyz --gfn 1 --opt -T 48

   ID    Z sym.   atoms
    1   27 Co     1, 59
    2    6 C      2-6, 8-12, 14-18, 20-25, 27-31, 33-38, 60-64, 66-70, 72-76,
                  78-83, 85-89, 91-96, 117-120
    3    7 N      7, 19, 26, 39, 65, 77, 84, 97
    4    8 O      13, 32, 71, 90
    5    1 H      40-58, 98-116
########################################################################
[WARNING] Please study the warnings concerning your input carefully
-1- prog_main_parseArguments: Unknown option '-T' provided
########################################################################

          :  Hamiltonian                  GFN1-xTB          :
 * total energy  :  -214.4814133 Eh     change       -0.4009451E-09 Eh
 * total energy  :  -215.2964336 Eh     change       -0.8150203E+00 Eh
 * total energy  :  -215.4012872 Eh     change       -0.1048536E+00 Eh
 * total energy  :  -215.4605535 Eh     change       -0.5926636E-01 Eh
 * total energy  :  -215.4796199 Eh     change       -0.1906641E-01 Eh
 * total energy  :  -215.4895803 Eh     change       -0.9960343E-02 Eh
 * total energy  :  -215.4952535 Eh     change       -0.5673257E-02 Eh
 * total energy  :  -215.4985912 Eh     change       -0.3337624E-02 Eh
 * total energy  :  -215.5005320 Eh     change       -0.1940825E-02 Eh
 * total energy  :  -215.5021305 Eh     change       -0.1598520E-02 Eh
 * total energy  :  -215.5063719 Eh     change       -0.1051616E-04 Eh
 * total energy  :  -215.5063817 Eh     change       -0.9864448E-05 Eh
 * total energy  :  -215.5063923 Eh     change       -0.1060626E-04 Eh
 * total energy  :  -215.5064025 Eh     change       -0.1016534E-04 Eh
 * total energy  :  -215.5064116 Eh     change       -0.9111902E-05 Eh
 * total energy  :  -215.5064200 Eh     change       -0.8389199E-05 Eh
 * total energy  :  -215.5064273 Eh     change       -0.7264169E-05 Eh
 * total energy  :  -215.5064354 Eh     change       -0.8116915E-05 Eh
 * total energy  :  -215.5064393 Eh     change       -0.3917293E-05 Eh
   *** GEOMETRY OPTIMIZATION CONVERGED AFTER 44 ITERATIONS ***

 final structure:
================
120
 xtb: 6.5.1 (b24c23e)
Co          15.59685057053806       -0.05984603335412       -0.07479518125101
C           12.23529265045295       -0.09478555716205       -0.38715163071134
C           12.91391682772470       -1.28888699746594       -0.49624096934558
C           12.26490008609292       -2.54984185639951       -0.68864107761692
C           13.20651842360262       -3.50294299991735       -0.49681131072789
C           14.43658795065850       -2.82237594044054       -0.21550466920847
N           14.25454881441233       -1.46372122151055       -0.25678122252041
C           15.61055229669368       -3.46103961246637        0.16354033530389
C           15.60886606134326       -4.93577312850286        0.32201790699020
C           15.39407625060219       -5.76823563178148       -0.77609824219126
C           15.38853029752077       -7.14680955970295       -0.62807691899963
C           15.59360706289453       -7.70758849159809        0.63032211537926
O           15.59004764115205       -9.05201474906890        0.82131832386282
C           15.81055997256157       -6.88598987587571        1.73500566980596
C           15.82124314134232       -5.51141035416651        1.57646733353603
C           16.79070429598517       -2.76466870061923        0.37363010095322
C           18.04334192025730       -3.39418145974547        0.66693805932218
C           18.99664152253343       -2.43789520636636        0.55968245313286
N           16.97460062236041       -1.42061210176293        0.13490146282769
C           18.32409465035976       -1.22653410998768        0.21262726413347
C           18.99235338755307       -0.03774616427116       -0.09297724891852
C           18.30603039455962        1.15471416743824       -0.33389689543016
C           18.95996031365967        2.39395355455248       -0.61177909345427
C           18.00160848200388        3.35137017822867       -0.58982129340725
C           16.76454447335518        2.69137000066599       -0.30049903629054
N           16.95706704842990        1.33219766033439       -0.20284231611944
C           15.56288076685575        3.35200685734171       -0.08996185703186
C           15.55172998362586        4.83242087252380       -0.07540396101666
C           16.31958893921817        5.54088892106169        0.85240039761209
C           16.31293504014262        6.92418148955103        0.86843072247235
C           15.54007527236572        7.62294668489645       -0.05749583523385
O           15.56079118946034        8.97978625673393       -0.01739586852729
C           14.77422915779387        6.93027688405752       -0.99248450319579
C           14.78028158715528        5.54431367081877       -0.99503956416867
C           14.36721555360493        2.66256474440809        0.06615288385911
C           13.09562929748829        3.29354874648409        0.26669510509699
C           12.15514100787350        2.32755252408195        0.13967964584561
C           12.85500567219979        1.10406251871098       -0.10484066090934
N           14.21101978730446        1.30922815818339       -0.09615710143782
H           11.15637787319875       -0.10530069046266       -0.48822341104774
H           11.21599190294668       -2.66985551102752       -0.90865733159852
H           13.08728527212596       -4.57381734684210       -0.52511989513436
H           15.24720989602423       -5.33323210565927       -1.75838180491179
H           15.22636915646914       -7.79026768854048       -1.48617354652957
H           15.43323379065466       -9.52552046456907       -0.00666428361348
H           15.96698812367089       -7.33611992513882        2.70750918839434
H           15.97959804919345       -4.87143088883132        2.43721227797120
H           18.16860058343605       -4.43993297317579        0.89565938034298
H           20.06275487687185       -2.52968577352252        0.69139365248417
H           20.01829094657573        2.50217309732870       -0.78643824661347
H           18.11064921024182        4.41031720009377       -0.75842441405644
H           16.91293492570023        4.99754604201034        1.57924978970706
H           16.90056563949556        7.47609930574728        1.59156169856744
H           14.99474944418968        9.36138774952946       -0.70175738037085
H           14.17910999469613        7.47790270921184       -1.71541624302552
H           14.19572334475314        5.00692671566796       -1.73347832807871
H           12.95388066083724        4.34215871404229        0.47242914081352
H           11.08246620768121        2.41465544742346        0.20919675734650
Co          28.98699132078431        0.04947220151827       -0.07840802998053
C           32.34854520880432        0.03943723263608       -0.38975204348190
C           31.66957359468354        1.20406806781742       -0.67435326717435
C           32.31784643643098        2.42337506715779       -1.05023562052119
C           31.37568732949784        3.39380435503573       -1.00063022850966
C           30.14615760925473        2.76149179981309       -0.62138433143707
N           30.32866433115468        1.41140472951398       -0.46389011217965
C           28.97317321983536        3.44862444208418       -0.33535519398277
C           28.97530562138900        4.93073724429604       -0.39163954514311
C           29.18630481038092        5.59545222351100       -1.59937109080320
C           29.19274828716458        6.98092254067298       -1.65230527676797
C           28.99246239246233        7.71794645431488       -0.48749195159893
O           28.99735030839751        9.07583886885349       -0.49289790109762
C           28.77917607989000        7.06491134509130        0.72514074602236
C           28.76750885795622        5.68186254671529        0.76711171239507
C           27.79379937196517        2.79022684179975       -0.02304736111522
C           26.54192181855715        3.45540334374542        0.18119192534176
C           25.58823013827988        2.49393176370184        0.21213142160944
N           27.60918018248228        1.42602116402302       -0.06865867300200
C           26.25985124193278        1.24544209672136        0.03823658098013
C           25.59159399296922        0.02540674201472       -0.09700523600566
C           26.27815462662567       -1.18902586963645       -0.16701035306946
C           25.62427616920299       -2.45512721596669       -0.26724430967510
C           26.58232214447868       -3.39984288440104       -0.10842609287954
C           27.81918775180528       -2.70562491345790        0.08634788061376
N           27.62694201127777       -1.34633881844940       -0.01088098131556
C           29.02028159448795       -3.32946179793741        0.39157105321399
C           29.03107569287759       -4.79263843206619        0.61672372180891
C           28.25768594138987       -5.36251007802438        1.63141969475426
C           28.26322518106502       -6.72953093943704        1.84348006932445
C           29.04071051862450       -7.55252480529241        1.03036098663547
O           29.01847081172375       -8.88996505557682        1.26215708597212
C           29.81248610450187       -6.99933348929809        0.01110572362347
C           29.80735859096220       -5.62775828822621       -0.18808547284777
C           30.21568466022335       -2.62442153193009        0.45117092554801
C           31.48660105142687       -3.21924680243924        0.74478860592621
C           32.42750571294895       -2.28089333112024        0.48380311304520
C           31.72848431905603       -1.10583542501169        0.06301213008586
N           30.37248857981299       -1.30850996336619        0.09633258029923
H           33.42767762032688        0.03584641603714       -0.48894408082051
H           33.36664733372973        2.51031358164597       -1.28574830194265
H           31.49425543940309        4.44889273322685       -1.18643761712372
H           29.32942441697778        5.02279762097593       -2.50891379089009
H           29.35195043846592        7.49338266084892       -2.59501125914418
H           29.15096823488305        9.42453697774730       -1.38124916900198
H           28.62643875103394        7.65108256180078        1.62287408489742
H           28.61215387144107        5.17322499893310        1.71193100947828
H           26.41723127312799        4.52300385956358        0.26052898800407
H           24.52242153018304        2.60405554441845        0.33166957875564
H           24.56612987898624       -2.58678890161445       -0.42621813562092
H           26.47303918000367       -4.47196512413110       -0.12512451211556
H           27.66087642068092       -4.72166305341030        2.27073243152730
H           27.67110428146573       -7.17335929990733        2.63421000510049
H           29.58840462733321       -9.36478668001345        0.64239390304350
H           30.41134581361414       -7.64387629579646       -0.62342096340213
H           30.39634140417350       -5.20058593263150       -0.99208169066690
H           31.62780423076820       -4.22729338625908        1.09961233687856
H           33.49991737821231       -2.35650043922116        0.56910120890515
C           21.61757699501912       -0.01331335015950       -0.13502431992777
C           20.39527921977054       -0.03224821310527       -0.12023143572551
C           22.96628740121546        0.00111386871385       -0.13478467105666
C           24.18867933009547        0.01605067182081       -0.12183880676464

          :  Hamiltonian                  GFN1-xTB          :
         :: total energy            -215.506439298022 Eh    ::
         :: gradient norm              0.000448403947 Eh/a0 ::
         :: HOMO-LUMO gap              0.008543243141 eV    ::
         :: SCC energy              -218.782292134332 Eh    ::
         :: repulsion energy           3.382029345907 Eh    ::

    * Orbital Energies and Occupations

         #    Occupation            Energy/Eh            Energy/eV
      -------------------------------------------------------------
         1        2.0000           -0.8062713             -21.9398
       ...           ...                  ...                  ...
       184        2.0000           -0.4198869             -11.4257
       185        2.0000           -0.4194472             -11.4137
       186        2.0000           -0.3954792             -10.7615
       187        2.0000           -0.3953882             -10.7591
       188        2.0000           -0.3952606             -10.7556
       189        2.0000           -0.3933504             -10.7036
       190        2.0000           -0.3923881             -10.6774
       191        1.9998           -0.3899970             -10.6124
       192        1.9998           -0.3899819             -10.6119
       193        1.9998           -0.3899587             -10.6113
       194        1.9998           -0.3899490             -10.6111
       195        1.8714           -0.3835537             -10.4370
       196        1.1467           -0.3812906             -10.3754 (HOMO)
       197        0.9826           -0.3809767             -10.3669 (LUMO)
       198                         -0.3371855              -9.1753
       199                         -0.3258872              -8.8678
       200                         -0.3258113              -8.8658
       201                         -0.3236171              -8.8061
       202                         -0.2966989              -8.0736
       203                         -0.2920517              -7.9471
       204                         -0.2920310              -7.9466
       205                         -0.2891601              -7.8684
       206                         -0.2681087              -7.2956
       207                         -0.2680403              -7.2937
       ...                                ...                  ...
       414                          1.5159911              41.2522
      -------------------------------------------------------------
                  HL-Gap            0.0003140 Eh            0.0085 eV

Wiberg/Mayer (AO) data.
largest (>0.10) Wiberg bond orders for each atom

     #   Z sym  total        # sym  WBO       # sym  WBO       # sym  WBO
 ---------------------------------------------------------------------------
     1  27 Co   3.037 --     7 N    0.638    39 N    0.635    26 N    0.633
                            19 N    0.632
     2   6 C    3.926 --     3 C    1.368    38 C    1.360    40 H    0.970
     3   6 C    3.925 --     2 C    1.368     7 N    1.200     4 C    1.174
     4   6 C    3.959 --     5 C    1.649     3 C    1.174    41 H    0.975
     5   6 C    3.963 --     4 C    1.649     6 C    1.178    42 H    0.972
     6   6 C    3.919 --     8 C    1.317     7 N    1.216     5 C    1.178
     7   7 N    3.344 --     6 C    1.216     3 C    1.200     1 Co   0.638
     8   6 C    3.930 --    16 C    1.336     6 C    1.317     9 C    1.023
     9   6 C    3.988 --    10 C    1.395    15 C    1.386     8 C    1.023
    10   6 C    3.988 --    11 C    1.451     9 C    1.395    43 H    0.973
                            14 C    0.105
    11   6 C    3.988 --    10 C    1.451    12 C    1.372    44 H    0.970
                            15 C    0.103
    12   6 C    3.902 --    11 C    1.372    14 C    1.365    13 O    1.040
    13   8 O    2.044 --    12 C    1.040    45 H    0.865
    14   6 C    3.990 --    15 C    1.466    12 C    1.365    46 H    0.971
                            10 C    0.105
    15   6 C    3.988 --    14 C    1.466     9 C    1.386    47 H    0.973
                            11 C    0.103
    16   6 C    3.916 --     8 C    1.336    19 N    1.191    17 C    1.181
    17   6 C    3.958 --    18 C    1.638    16 C    1.181    48 H    0.973
    18   6 C    3.962 --    17 C    1.638    20 C    1.190    49 H    0.973
    19   7 N    3.348 --    20 C    1.235    16 C    1.191     1 Co   0.632
    20   6 C    3.905 --    21 C    1.256    19 N    1.235    18 C    1.190
    21   6 C    3.930 --    22 C    1.260    20 C    1.256   118 C    1.191
    22   6 C    3.905 --    21 C    1.260    26 N    1.230    23 C    1.190
    23   6 C    3.961 --    24 C    1.636    22 C    1.190    50 H    0.974
    24   6 C    3.959 --    23 C    1.636    25 C    1.183    51 H    0.973
    25   6 C    3.917 --    27 C    1.329    26 N    1.196    24 C    1.183
    26   7 N    3.345 --    22 C    1.230    25 C    1.196     1 Co   0.633
    27   6 C    3.931 --    25 C    1.329    35 C    1.317    28 C    1.032
    28   6 C    3.988 --    34 C    1.391    29 C    1.382    27 C    1.032
    29   6 C    3.986 --    30 C    1.468    28 C    1.382    52 H    0.973
                            33 C    0.102
    30   6 C    3.990 --    29 C    1.468    31 C    1.363    53 H    0.971
                            34 C    0.104
    31   6 C    3.900 --    33 C    1.371    30 C    1.363    32 O    1.041
    32   8 O    2.044 --    31 C    1.041    54 H    0.865
    33   6 C    3.988 --    34 C    1.454    31 C    1.371    55 H    0.970
                            29 C    0.102
    34   6 C    3.987 --    33 C    1.454    28 C    1.391    56 H    0.972
                            30 C    0.104
    35   6 C    3.920 --    27 C    1.317    39 N    1.212    36 C    1.178
    36   6 C    3.963 --    37 C    1.645    35 C    1.178    57 H    0.973
    37   6 C    3.958 --    36 C    1.645    38 C    1.177    58 H    0.975
    38   6 C    3.925 --     2 C    1.360    39 N    1.205    37 C    1.177
    39   7 N    3.345 --    35 C    1.212    38 C    1.205     1 Co   0.635
    40   1 H    1.000 --     2 C    0.970
    41   1 H    0.998 --     4 C    0.975
    42   1 H    1.005 --     5 C    0.972
    43   1 H    1.004 --    10 C    0.973
    44   1 H    0.999 --    11 C    0.970
    45   1 H    0.887 --    13 O    0.865
    46   1 H    0.999 --    14 C    0.971
    47   1 H    1.004 --    15 C    0.973
    48   1 H    1.004 --    17 C    0.973
    49   1 H    1.002 --    18 C    0.973
    50   1 H    1.002 --    23 C    0.974
    51   1 H    1.004 --    24 C    0.973
    52   1 H    1.005 --    29 C    0.973
    53   1 H    0.999 --    30 C    0.971
    54   1 H    0.887 --    32 O    0.865
    55   1 H    0.999 --    33 C    0.970
    56   1 H    1.005 --    34 C    0.972
    57   1 H    1.004 --    36 C    0.973
    58   1 H    0.998 --    37 C    0.975
    59  27 Co   3.042 --    65 N    0.638    97 N    0.635    84 N    0.634
                            77 N    0.632
    60   6 C    3.926 --    61 C    1.368    96 C    1.360    98 H    0.970
    61   6 C    3.925 --    60 C    1.368    65 N    1.199    62 C    1.174
    62   6 C    3.959 --    63 C    1.649    61 C    1.174    99 H    0.975
    63   6 C    3.963 --    62 C    1.649    64 C    1.178   100 H    0.972
    64   6 C    3.919 --    66 C    1.317    65 N    1.216    63 C    1.178
    65   7 N    3.344 --    64 C    1.216    61 C    1.199    59 Co   0.638
    66   6 C    3.930 --    74 C    1.336    64 C    1.317    67 C    1.023
    67   6 C    3.988 --    68 C    1.395    73 C    1.386    66 C    1.023
    68   6 C    3.988 --    69 C    1.451    67 C    1.395   101 H    0.973
                            72 C    0.105
    69   6 C    3.988 --    68 C    1.451    70 C    1.372   102 H    0.970
                            73 C    0.103
    70   6 C    3.902 --    69 C    1.372    72 C    1.365    71 O    1.040
    71   8 O    2.044 --    70 C    1.040   103 H    0.865
    72   6 C    3.990 --    73 C    1.466    70 C    1.365   104 H    0.971
                            68 C    0.105
    73   6 C    3.988 --    72 C    1.466    67 C    1.386   105 H    0.973
                            69 C    0.103
    74   6 C    3.916 --    66 C    1.336    77 N    1.191    75 C    1.181
    75   6 C    3.958 --    76 C    1.638    74 C    1.181   106 H    0.973
    76   6 C    3.962 --    75 C    1.638    78 C    1.190   107 H    0.973
    77   7 N    3.348 --    78 C    1.235    74 C    1.191    59 Co   0.632
    78   6 C    3.905 --    79 C    1.256    77 N    1.235    76 C    1.190
    79   6 C    3.931 --    80 C    1.261    78 C    1.256   120 C    1.191
    80   6 C    3.905 --    79 C    1.261    84 N    1.230    81 C    1.190
    81   6 C    3.961 --    82 C    1.636    80 C    1.190   108 H    0.974
    82   6 C    3.959 --    81 C    1.636    83 C    1.183   109 H    0.973
    83   6 C    3.917 --    85 C    1.329    84 N    1.196    82 C    1.183
    84   7 N    3.345 --    80 C    1.230    83 C    1.196    59 Co   0.634
    85   6 C    3.931 --    83 C    1.329    93 C    1.317    86 C    1.033
    86   6 C    3.988 --    92 C    1.391    87 C    1.381    85 C    1.033
    87   6 C    3.986 --    88 C    1.468    86 C    1.381   110 H    0.973
                            91 C    0.102
    88   6 C    3.990 --    87 C    1.468    89 C    1.363   111 H    0.971
                            92 C    0.104
    89   6 C    3.900 --    91 C    1.371    88 C    1.363    90 O    1.041
    90   8 O    2.044 --    89 C    1.041   112 H    0.865
    91   6 C    3.988 --    92 C    1.454    89 C    1.371   113 H    0.970
                            87 C    0.102
    92   6 C    3.987 --    91 C    1.454    86 C    1.391   114 H    0.972
                            88 C    0.104
    93   6 C    3.920 --    85 C    1.317    97 N    1.212    94 C    1.178
    94   6 C    3.963 --    95 C    1.645    93 C    1.178   115 H    0.973
    95   6 C    3.958 --    94 C    1.645    96 C    1.177   116 H    0.975
    96   6 C    3.925 --    60 C    1.360    97 N    1.204    95 C    1.177
    97   7 N    3.345 --    93 C    1.212    96 C    1.204    59 Co   0.635
    98   1 H    1.000 --    60 C    0.970
    99   1 H    0.998 --    62 C    0.975
   100   1 H    1.005 --    63 C    0.972
   101   1 H    1.004 --    68 C    0.973
   102   1 H    0.999 --    69 C    0.970
   103   1 H    0.887 --    71 O    0.865
   104   1 H    0.999 --    72 C    0.971
   105   1 H    1.004 --    73 C    0.973
   106   1 H    1.004 --    75 C    0.973
   107   1 H    1.002 --    76 C    0.973
   108   1 H    1.002 --    81 C    0.974
   109   1 H    1.004 --    82 C    0.973
   110   1 H    1.005 --    87 C    0.973
   111   1 H    0.999 --    88 C    0.971
   112   1 H    0.887 --    90 O    0.865
   113   1 H    0.999 --    91 C    0.970
   114   1 H    1.005 --    92 C    0.972
   115   1 H    1.004 --    94 C    0.973
   116   1 H    0.998 --    95 C    0.975
   117   6 C    3.929 --   118 C    2.468   119 C    1.313
   118   6 C    3.919 --   117 C    2.468    21 C    1.191   120 C    0.198
   119   6 C    3.929 --   120 C    2.468   117 C    1.313
   120   6 C    3.920 --   119 C    2.468    79 C    1.191   118 C    0.198
 ---------------------------------------------------------------------------

           -------------------------------------------------
          | TOTAL ENERGY             -215.506439298022 Eh   |
          | GRADIENT NORM               0.000448403947 Eh/α |
          | HOMO-LUMO GAP               0.008543243141 eV   |
           -------------------------------------------------

 * finished run on 2022/07/30 at 02:14:27.750
