   * xtb version 6.5.1 (b24c23e) compiled by 'conda@728c89f4b128' on 2022-07-12
          program call               : xtb Zn_PhCHO_C2_2.xyz --gfn 1 --opt -T 48

   ID    Z sym.   atoms
    1   30 Zn     1, 61
    2    6 C      2-6, 8-13, 15-19, 21-26, 28-33, 35-40, 62-66, 68-73, 75-79,
                  81-86, 88-93, 95-100, 121, 122
    3    7 N      7, 20, 27, 41, 67, 80, 87, 101
    4    8 O      14, 34, 74, 94
    5    1 H      42-60, 102-120
########################################################################
[WARNING] Please study the warnings concerning your input carefully
-1- prog_main_parseArguments: Unknown option '-T' provided
########################################################################

          :  Hamiltonian                  GFN1-xTB          :
 * total energy  :  -214.0038305 Eh     change       -0.8537882E-10 Eh
 * total energy  :  -214.1551206 Eh     change       -0.1512901E+00 Eh
 * total energy  :  -214.2134822 Eh     change       -0.5836159E-01 Eh
 * total energy  :  -214.2279872 Eh     change       -0.1450501E-01 Eh
 * total energy  :  -214.2338119 Eh     change       -0.5824689E-02 Eh
 * total energy  :  -214.2372887 Eh     change       -0.3476763E-02 Eh
 * total energy  :  -214.2392037 Eh     change       -0.1914967E-02 Eh
 * total energy  :  -214.2408072 Eh     change       -0.1603582E-02 Eh
 * total energy  :  -214.2417251 Eh     change       -0.9179133E-03 Eh
 * total energy  :  -214.2424859 Eh     change       -0.7607301E-03 Eh
 * total energy  :  -214.2449925 Eh     change       -0.2329519E-04 Eh
 * total energy  :  -214.2449993 Eh     change       -0.6811297E-05 Eh
 * total energy  :  -214.2450202 Eh     change       -0.2090234E-04 Eh
 * total energy  :  -214.2450404 Eh     change       -0.2013439E-04 Eh
 * total energy  :  -214.2450557 Eh     change       -0.1534638E-04 Eh
 * total energy  :  -214.2450698 Eh     change       -0.1407286E-04 Eh
 * total energy  :  -214.2450746 Eh     change       -0.4847603E-05 Eh
 * total energy  :  -214.2450836 Eh     change       -0.8986365E-05 Eh
 * total energy  :  -214.2450876 Eh     change       -0.3976993E-05 Eh
   *** GEOMETRY OPTIMIZATION CONVERGED AFTER 40 ITERATIONS ***

 final structure:
================
122
 xtb: 6.5.1 (b24c23e)
Zn          17.10166000118359        0.06385410784538       -0.02408221220065
C           13.68849833644120        0.10532264211778       -0.08809001724359
C           14.32051507464926        1.33355584354489        0.06144851497046
C           13.64797920076719        2.59238215617524        0.22229981409397
C           14.60779261172316        3.53886237523032        0.37093253637398
C           15.87994763031535        2.86968108684305        0.29372830542569
N           15.67022277776496        1.53505047714867        0.10861034388618
C           17.13101397960361        3.48082664990740        0.44150511604851
C           17.14071408918599        4.95002745770442        0.64337043732122
C           17.64417397531502        5.50310962090788        1.82472859187071
C           17.64246522719321        6.87202522705893        2.01111768633843
C           17.14224178611880        7.72120122424686        1.01839640883914
C           17.14950329188361        9.17806817480758        1.24118136032363
O           17.56060693184535        9.70024154949601        2.24567655898628
C           16.64233776859933        7.17042444586416       -0.16416025763547
C           16.63929973549864        5.79923492524302       -0.34734368384339
C           18.36954795408646        2.82877881454383        0.41850043069323
C           19.64586814623271        3.47385533765985        0.55196254813545
C           20.59298619740508        2.50833241757477        0.44306686107370
N           18.56787250855589        1.48837512581598        0.22099864039235
C           19.91148190198444        1.26700691462524        0.22577434541216
C           20.54818149091009        0.02582219070153        0.01850503142318
C           19.88720898304921       -1.20113543818574       -0.19747362783373
C           20.54357612053368       -2.44805421987285       -0.45555151102923
C           19.57769946779289       -3.39297190091801       -0.58052186086457
C           18.31586987198100       -2.73118161582005       -0.40086639778628
N           18.53971353203360       -1.39771590464678       -0.18680191475741
C           17.06464436784853       -3.35622323322582       -0.46767760822569
C           17.05360638877493       -4.82901580503125       -0.63238574371250
C           16.44698778709375       -5.41615538640477       -1.74669313005560
C           16.42921148103621       -6.79171160988000       -1.89277581378725
C           17.01400707489351       -7.61045376851547       -0.92342478529513
C           16.99990708302343       -9.07849677032286       -1.05118408016121
O           17.48563202048998       -9.82629807672603       -0.24121496259815
C           17.62281830527550       -7.02393392634247        0.19132837934388
C           17.64513327312256       -5.65018021588433        0.33318559428844
C           15.82353946340238       -2.71285063393349       -0.38774382375868
C           14.53865171459600       -3.36102416932275       -0.41787687268519
C           13.59778520158675       -2.38913169252491       -0.32033701261396
C           14.29528885276127       -1.13804622966104       -0.21566749460093
N           15.64065767007197       -1.36828507652780       -0.25229533456826
H           12.60300665357627        0.11687386007298       -0.09197254303837
H           12.57711046068071        2.72205954880253        0.22812785664211
H           14.47048804217357        4.59593744074256        0.53317672559027
H           18.01980641277479        4.84737125799508        2.60209701239911
H           18.02524036119707        7.30813891525878        2.92758792036434
H           16.73690387095656        9.77020095784589        0.39634867597583
H           16.25554163916390        7.82191862524423       -0.94111463282538
H           16.26072939479616        5.37537351690669       -1.27076208614753
H           19.79883422967752        4.53060800601666        0.69981441058645
H           21.66195075055984        2.62395983770775        0.50537256922941
H           21.60888985248731       -2.57890271205479       -0.54437602096420
H           19.70683442716886       -4.44156807604392       -0.79468296242264
H           16.00346237324707       -4.78360384710976       -2.50748305877016
H           15.96010285505944       -7.23814862110525       -2.76366564439174
H           16.49452204360621       -9.45132036389856       -1.96769522548941
H           18.07224463637108       -7.66706626366111        0.94037970033175
H           18.10571073458584       -5.19932703863343        1.20507072417379
H           14.38035537739140       -4.42505025513053       -0.49075640430924
H           12.52471481189058       -2.49878686995416       -0.31020087982218
Zn          28.03612073483689       -0.05975519862715       -0.03287214027818
C           31.44927488075924       -0.09169403526539       -0.10228945153418
C           30.81725657429175       -1.32870516703285       -0.12915114183296
C           31.48979631089569       -2.59760703182668       -0.14918852813257
C           30.52998827747583       -3.55560971126208       -0.13679369353434
C           29.25783286567249       -2.88225714516816       -0.11790778665264
N           29.46754995683501       -1.53486479516114       -0.11111365372448
C           28.00677240822159       -3.50822457285848       -0.05865258795528
C           27.99707975251668       -4.99119808573748       -0.06806855611657
C           27.49357665516165       -5.70687989944352        1.02246502121955
C           27.49527354853693       -7.08838720101604        1.01200964092456
C           27.99553202766735       -7.78753473482331       -0.09150584311068
C           27.98839844166351       -9.26128307191119       -0.07842975035368
O           27.57728071939693       -9.92117603035732        0.84147177415726
C           28.49547050011882       -7.07396708057412       -1.18355741366690
C           28.49853147620066       -5.69066661160601       -1.16959996219453
C           26.76824205874957       -2.85954079410462        0.01142361668010
C           25.49191793679155       -3.51704594553243        0.05163549058948
C           24.54480709366512       -2.54584875533939        0.08128543478991
N           26.56993259006894       -1.50466788671450        0.00686366577716
C           25.22632792496237       -1.28623268644462        0.04308470089285
C           24.58960000365643       -0.02820413725543        0.01466962100061
C           25.25054349572087        1.21702798959093       -0.02435144702734
C           24.59419179249075        2.48798605884484       -0.10232971385572
C           25.56006950797221        3.44106673560647       -0.09140208892675
C           26.82190092239947        2.76044096790447       -0.00781079976830
N           26.59804374173466        1.41008581572939        0.01422670204687
C           28.07313120507532        3.38862975647959        0.01507384817384
C           28.08414420768662        4.86986478860517        0.06179098560094
C           28.69079890955129        5.60971680899047       -0.95751820964483
C           28.70849805014426        6.99205832742274       -0.90626045091388
C           28.12363819676100        7.66440679710776        0.16977615806426
C           28.13757387265251        9.13569013565687        0.25223782141795
O           27.65246300931964        9.76050531402616        1.16080471197940
C           27.51483101835536        6.92510457473127        1.18964508839425
C           27.49253986707540        5.54514904729291        1.13442727726564
C           29.31424173071129        2.74043459876790        0.00256049108721
C           30.59913354668600        3.38628741731216        0.06503710737131
C           31.53999864355227        2.41040847131372        0.02311392470499
C           30.84249039833574        1.15717175605462       -0.05145783775379
N           29.49712223722139        1.39028427508140       -0.05487459880734
H           32.53476583045602       -0.10257689048358       -0.10784115841674
H           32.56066435120012       -2.72679346070655       -0.16190718519079
H           30.66729986842534       -4.62501498872848       -0.12669626351429
H           27.11788910226864       -5.16852650020829        1.88527289892729
H           27.11244230283117       -7.65056685796034        1.85701615503050
H           28.40059884428452       -9.72705693092580       -0.99915107472575
H           28.88229985462010       -7.60818267993156       -2.04535183193953
H           28.87712924787731       -5.13962664926656       -2.02323359294633
H           25.33893996419522       -4.58408368039092        0.04748317215127
H           23.47583732497535       -2.66916294851736        0.12645897528089
H           23.52888476664126        2.63014760465645       -0.17165309616681
H           25.43093957685079        4.50947249053592       -0.15404728550748
H           29.13443366084226        5.09195392487832       -1.80057963998651
H           29.17761874428621        7.55796695774146       -1.70469057601875
H           28.64284933034171        9.63519843150227       -0.60183874616072
H           27.06530823927032        7.45500776009951        2.02259628789208
H           27.03194447630432        4.97472707355485        1.93320553380947
H           30.75743618518765        4.44984339611913        0.14447218704064
H           32.61307078366371        2.51749922647569        0.04872213614466
C           21.95988800202827        0.01001949735287        0.01915075589467
C           23.17789324716059       -0.01306084536306        0.01672742459458

          :  Hamiltonian                  GFN1-xTB          :
         :: total energy            -214.245087602544 Eh    ::
         :: gradient norm              0.000628418296 Eh/a0 ::
         :: HOMO-LUMO gap              1.103325979480 eV    ::
         :: SCC energy              -217.497376698182 Eh    ::
         :: repulsion energy           3.363167563221 Eh    ::

    * Orbital Energies and Occupations

         #    Occupation            Energy/Eh            Energy/eV
      -------------------------------------------------------------
         1        2.0000           -0.7896309             -21.4869
       ...           ...                  ...                  ...
       181        2.0000           -0.4412236             -12.0063
       182        2.0000           -0.4328910             -11.7796
       183        2.0000           -0.4328870             -11.7795
       184        2.0000           -0.4323346             -11.7644
       185        2.0000           -0.4321637             -11.7598
       186        2.0000           -0.4321304             -11.7589
       187        2.0000           -0.4318201             -11.7504
       188        2.0000           -0.4318149             -11.7503
       189        2.0000           -0.4307752             -11.7220
       190        2.0000           -0.4046850             -11.0120
       191        2.0000           -0.4046755             -11.0118
       192        2.0000           -0.4027896             -10.9605
       193        2.0000           -0.3880777             -10.5601 (HOMO)
       194                         -0.3475312              -9.4568 (LUMO)
       195                         -0.3409527              -9.2778
       196                         -0.3409504              -9.2777
       197                         -0.3306088              -8.9963
       198                         -0.3252486              -8.8505
       199                         -0.3241444              -8.8204
       200                         -0.3197329              -8.7004
       201                         -0.3197270              -8.7002
       202                         -0.3024024              -8.2288
       203                         -0.2938083              -7.9949
       204                         -0.2802214              -7.6252
       ...                                ...                  ...
       412                          1.3217199              35.9658
      -------------------------------------------------------------
                  HL-Gap            0.0405465 Eh            1.1033 eV

Wiberg/Mayer (AO) data.
largest (>0.10) Wiberg bond orders for each atom

     #   Z sym  total        # sym  WBO       # sym  WBO       # sym  WBO
 ---------------------------------------------------------------------------
     1  30 Zn   1.994 --     7 N    0.459    41 N    0.458    27 N    0.456
                            20 N    0.456
     2   6 C    3.928 --     3 C    1.358    40 C    1.358    42 H    0.971
     3   6 C    3.920 --     2 C    1.358     7 N    1.232     4 C    1.170
     4   6 C    3.960 --     5 C    1.660     3 C    1.170    43 H    0.975
     5   6 C    3.963 --     4 C    1.660     6 C    1.171    44 H    0.973
     6   6 C    3.918 --     8 C    1.313     7 N    1.246     5 C    1.171
     7   7 N    3.293 --     6 C    1.246     3 C    1.232     1 Zn   0.459
     8   6 C    3.931 --    17 C    1.320     6 C    1.313     9 C    1.032
     9   6 C    3.985 --    16 C    1.382    10 C    1.381     8 C    1.032
    10   6 C    3.987 --    11 C    1.471     9 C    1.381    45 H    0.972
    11   6 C    3.988 --    10 C    1.471    12 C    1.369    46 H    0.968
                            16 C    0.100
    12   6 C    3.983 --    15 C    1.377    11 C    1.369    13 C    1.050
    13   6 C    3.864 --    14 O    1.807    12 C    1.050    47 H    0.942
    14   8 O    2.003 --    13 C    1.807
    15   6 C    3.993 --    16 C    1.466    12 C    1.377    48 H    0.971
    16   6 C    3.987 --    15 C    1.466     9 C    1.382    49 H    0.972
                            11 C    0.100
    17   6 C    3.913 --     8 C    1.320    20 N    1.228    18 C    1.179
    18   6 C    3.959 --    19 C    1.645    17 C    1.179    50 H    0.973
    19   6 C    3.962 --    18 C    1.645    21 C    1.187    51 H    0.966
    20   7 N    3.296 --    21 C    1.260    17 C    1.228     1 Zn   0.456
    21   6 C    3.905 --    20 N    1.260    22 C    1.259    19 C    1.187
    22   6 C    3.939 --    21 C    1.259    23 C    1.258   121 C    1.180
    23   6 C    3.905 --    27 N    1.259    22 C    1.258    24 C    1.187
    24   6 C    3.962 --    25 C    1.644    23 C    1.187    52 H    0.966
    25   6 C    3.959 --    24 C    1.644    26 C    1.179    53 H    0.973
    26   6 C    3.913 --    28 C    1.317    27 N    1.229    25 C    1.179
    27   7 N    3.296 --    23 C    1.259    26 C    1.229     1 Zn   0.456
    28   6 C    3.931 --    26 C    1.317    37 C    1.312    29 C    1.035
    29   6 C    3.985 --    30 C    1.382    36 C    1.379    28 C    1.035
    30   6 C    3.987 --    31 C    1.466    29 C    1.382    54 H    0.972
    31   6 C    3.993 --    30 C    1.466    32 C    1.377    55 H    0.971
    32   6 C    3.982 --    31 C    1.377    35 C    1.368    33 C    1.051
    33   6 C    3.864 --    34 O    1.806    32 C    1.051    56 H    0.942
    34   8 O    2.002 --    33 C    1.806
    35   6 C    3.988 --    36 C    1.472    32 C    1.368    57 H    0.968
    36   6 C    3.987 --    35 C    1.472    29 C    1.379    58 H    0.972
    37   6 C    3.918 --    28 C    1.312    41 N    1.246    38 C    1.171
    38   6 C    3.963 --    39 C    1.660    37 C    1.171    59 H    0.973
    39   6 C    3.960 --    38 C    1.660    40 C    1.170    60 H    0.975
    40   6 C    3.920 --     2 C    1.358    41 N    1.233    39 C    1.170
    41   7 N    3.292 --    37 C    1.246    40 C    1.233     1 Zn   0.458
    42   1 H    1.001 --     2 C    0.971
    43   1 H    0.998 --     4 C    0.975
    44   1 H    1.004 --     5 C    0.973
    45   1 H    1.004 --    10 C    0.972
    46   1 H    1.005 --    11 C    0.968
    47   1 H    1.010 --    13 C    0.942
    48   1 H    1.000 --    15 C    0.971
    49   1 H    1.004 --    16 C    0.972
    50   1 H    1.004 --    18 C    0.973
    51   1 H    1.007 --    19 C    0.966
    52   1 H    1.007 --    24 C    0.966
    53   1 H    1.004 --    25 C    0.973
    54   1 H    1.004 --    30 C    0.972
    55   1 H    1.000 --    31 C    0.971
    56   1 H    1.010 --    33 C    0.942
    57   1 H    1.005 --    35 C    0.968
    58   1 H    1.004 --    36 C    0.972
    59   1 H    1.004 --    38 C    0.973
    60   1 H    0.998 --    39 C    0.975
    61  30 Zn   1.994 --    67 N    0.459   101 N    0.458    87 N    0.456
                            80 N    0.456
    62   6 C    3.928 --    63 C    1.358   100 C    1.358   102 H    0.971
    63   6 C    3.920 --    62 C    1.358    67 N    1.232    64 C    1.170
    64   6 C    3.960 --    65 C    1.660    63 C    1.170   103 H    0.975
    65   6 C    3.963 --    64 C    1.660    66 C    1.171   104 H    0.973
    66   6 C    3.918 --    68 C    1.313    67 N    1.246    65 C    1.171
    67   7 N    3.293 --    66 C    1.246    63 C    1.232    61 Zn   0.459
    68   6 C    3.931 --    77 C    1.320    66 C    1.313    69 C    1.032
    69   6 C    3.985 --    76 C    1.382    70 C    1.381    68 C    1.032
    70   6 C    3.987 --    71 C    1.471    69 C    1.381   105 H    0.972
    71   6 C    3.988 --    70 C    1.471    72 C    1.369   106 H    0.968
                            76 C    0.100
    72   6 C    3.983 --    75 C    1.377    71 C    1.369    73 C    1.050
    73   6 C    3.864 --    74 O    1.807    72 C    1.050   107 H    0.942
    74   8 O    2.003 --    73 C    1.807
    75   6 C    3.993 --    76 C    1.466    72 C    1.377   108 H    0.971
    76   6 C    3.987 --    75 C    1.466    69 C    1.382   109 H    0.972
                            71 C    0.100
    77   6 C    3.913 --    68 C    1.320    80 N    1.228    78 C    1.179
    78   6 C    3.959 --    79 C    1.645    77 C    1.179   110 H    0.973
    79   6 C    3.962 --    78 C    1.645    81 C    1.187   111 H    0.966
    80   7 N    3.296 --    81 C    1.260    77 C    1.228    61 Zn   0.456
    81   6 C    3.905 --    80 N    1.260    82 C    1.259    79 C    1.187
    82   6 C    3.939 --    81 C    1.259    83 C    1.258   122 C    1.180
    83   6 C    3.905 --    87 N    1.259    82 C    1.258    84 C    1.187
    84   6 C    3.962 --    85 C    1.644    83 C    1.187   112 H    0.966
    85   6 C    3.959 --    84 C    1.644    86 C    1.179   113 H    0.973
    86   6 C    3.913 --    88 C    1.317    87 N    1.229    85 C    1.179
    87   7 N    3.296 --    83 C    1.259    86 C    1.229    61 Zn   0.456
    88   6 C    3.931 --    86 C    1.317    97 C    1.312    89 C    1.035
    89   6 C    3.985 --    90 C    1.382    96 C    1.379    88 C    1.035
    90   6 C    3.987 --    91 C    1.466    89 C    1.382   114 H    0.972
    91   6 C    3.993 --    90 C    1.466    92 C    1.377   115 H    0.971
    92   6 C    3.982 --    91 C    1.377    95 C    1.368    93 C    1.051
    93   6 C    3.864 --    94 O    1.806    92 C    1.051   116 H    0.942
    94   8 O    2.002 --    93 C    1.806
    95   6 C    3.988 --    96 C    1.472    92 C    1.368   117 H    0.968
    96   6 C    3.987 --    95 C    1.472    89 C    1.379   118 H    0.972
    97   6 C    3.918 --    88 C    1.312   101 N    1.246    98 C    1.171
    98   6 C    3.963 --    99 C    1.660    97 C    1.171   119 H    0.973
    99   6 C    3.960 --    98 C    1.660   100 C    1.170   120 H    0.975
   100   6 C    3.920 --    62 C    1.358   101 N    1.233    99 C    1.170
   101   7 N    3.292 --    97 C    1.246   100 C    1.233    61 Zn   0.458
   102   1 H    1.001 --    62 C    0.971
   103   1 H    0.998 --    64 C    0.975
   104   1 H    1.004 --    65 C    0.973
   105   1 H    1.004 --    70 C    0.972
   106   1 H    1.005 --    71 C    0.968
   107   1 H    1.010 --    73 C    0.942
   108   1 H    1.000 --    75 C    0.971
   109   1 H    1.004 --    76 C    0.972
   110   1 H    1.004 --    78 C    0.973
   111   1 H    1.007 --    79 C    0.966
   112   1 H    1.007 --    84 C    0.966
   113   1 H    1.004 --    85 C    0.973
   114   1 H    1.004 --    90 C    0.972
   115   1 H    1.000 --    91 C    0.971
   116   1 H    1.010 --    93 C    0.942
   117   1 H    1.005 --    95 C    0.968
   118   1 H    1.004 --    96 C    0.972
   119   1 H    1.004 --    98 C    0.973
   120   1 H    0.998 --    99 C    0.975
   121   6 C    3.935 --   122 C    2.578    22 C    1.180
   122   6 C    3.935 --   121 C    2.578    82 C    1.180
 ---------------------------------------------------------------------------

           -------------------------------------------------
          | TOTAL ENERGY             -214.245087602544 Eh   |
          | GRADIENT NORM               0.000628418296 Eh/α |
          | HOMO-LUMO GAP               1.103325979480 eV   |
           -------------------------------------------------

 * finished run on 2022/07/30 at 08:59:53.169
