   * xtb version 6.5.1 (b24c23e) compiled by 'conda@728c89f4b128' on 2022-07-12
          program call               : xtb Fe_PhCHO_C6_3.xyz --gfn 1 --opt -T 48

   ID    Z sym.   atoms
    1   26 Fe     1, 61, 133
    2    6 C      2-6, 8-13, 15-19, 21-26, 28-33, 35-40, 62-66, 68-73, 75-79,
                  81-86, 88-93, 95-100, 121-132, 134-138, 140-145, 147-151,
                  153-158, 160-165, 167-172
    3    7 N      7, 20, 27, 41, 67, 80, 87, 101, 139, 152, 159, 173
    4    8 O      14, 34, 74, 94, 146, 166
    5    1 H      42-60, 102-120, 174-191

          :  Hamiltonian                  GFN1-xTB          :
 * total energy  :  -345.6278604 Eh     change        0.8536176E-09 Eh
 * total energy  :  -345.8040745 Eh     change       -0.1762141E+00 Eh
 * total energy  :  -345.8939610 Eh     change       -0.8988649E-01 Eh
 * total energy  :  -345.9572552 Eh     change       -0.6329415E-01 Eh
 * total energy  :  -346.0201444 Eh     change       -0.6288923E-01 Eh
 * total energy  :  -346.0689976 Eh     change       -0.4885317E-01 Eh
 * total energy  :  -346.0964910 Eh     change       -0.2749347E-01 Eh
 * total energy  :  -346.1188589 Eh     change       -0.2236789E-01 Eh
 * total energy  :  -346.1355759 Eh     change       -0.1671698E-01 Eh
 * total energy  :  -346.1470621 Eh     change       -0.1148620E-01 Eh
 * total energy  :  -346.2503513 Eh     change       -0.5385217E-04 Eh
 * total energy  :  -346.2503859 Eh     change       -0.3460935E-04 Eh
 * total energy  :  -346.2504143 Eh     change       -0.2844046E-04 Eh
 * total energy  :  -346.2504318 Eh     change       -0.1741714E-04 Eh
 * total energy  :  -346.2504582 Eh     change       -0.2645420E-04 Eh
 * total energy  :  -346.2504663 Eh     change       -0.8068278E-05 Eh
 * total energy  :  -346.2504791 Eh     change       -0.1282993E-04 Eh
 * total energy  :  -346.2504902 Eh     change       -0.1107921E-04 Eh
 * total energy  :  -346.2504943 Eh     change       -0.4166314E-05 Eh
   *** GEOMETRY OPTIMIZATION CONVERGED AFTER 67 ITERATIONS ***

 final structure:
================
191
 xtb: 6.5.1 (b24c23e)
Fe          29.49075146641963        0.00929401853002        0.00621876472083
C           26.09909304270645        0.04922989937272       -0.03039551966631
C           26.75591148787384        1.26093487045529        0.02317364881971
C           26.08123841627126        2.52287349665547        0.07434445344175
C           27.04009499193014        3.47010992597015        0.19684214445330
C           28.30041638689622        2.78465852171616        0.21298252243640
N           28.11327068072488        1.43426158110843        0.09559837746746
C           29.52285425379311        3.41726459727111        0.41207003662331
C           29.53672960093354        4.88982269063512        0.58011549149911
C           29.93235929466623        5.46107362143550        1.79275585290914
C           29.94714379822099        6.83449639770812        1.94340810833711
C           29.57198031175546        7.66674339403124        0.88366652433513
C           29.60256999432724        9.12958671978781        1.06745146885646
O           29.93780337813039        9.66830594602255        2.09095444976422
C           29.17698321859513        7.09600806266304       -0.32851100063795
C           29.15696064823656        5.72052450048511       -0.47713719168027
C           30.73019614988247        2.73563359832189        0.45703977735188
C           32.00031926593103        3.37548179233887        0.63374966210849
C           32.94268985030686        2.40895421769696        0.52666349721137
N           30.89956880255191        1.38677533485409        0.25093302725656
C           32.24711921985940        1.18505441053489        0.27782376427447
C           32.90320822330303       -0.02902697968256        0.03959423160070
C           32.22397989427995       -1.22924302217299       -0.20314724293256
C           32.89442020808584       -2.46284599666154       -0.47206154697952
C           31.93250419712465       -3.40879855406313       -0.59063574800600
C           30.67712745681953       -2.74896973687894       -0.38508508281663
N           30.87262015378731       -1.40423001263996       -0.17735686515232
C           29.45252373390126       -3.40106644148677       -0.38705367370166
C           29.43682170109852       -4.87246303670972       -0.55702133941883
C           28.81623996085789       -5.44804963819549       -1.66888281576403
C           28.80803266828867       -6.82188540736911       -1.83294019148562
C           29.41412161872153       -7.64753485634019       -0.88309279922974
C           29.41736744535911       -9.11448417866040       -1.03336502172419
O           29.92156832259111       -9.86699716916266       -0.23974156284195
C           30.03071526907690       -7.07149453095130        0.23245690866750
C           30.04521232663414       -5.69924565370689        0.39201336307433
C           28.23992979106253       -2.73615119819919       -0.23839457735362
C           26.96634897675522       -3.39526352763263       -0.19642875224748
C           26.02731414834832       -2.42523737706477       -0.10003173102482
C           26.72868916896777       -1.17724297743707       -0.07184693241029
N           28.08249408386529       -1.38126589972908       -0.13104516930113
H           25.01499731180023        0.06152847505123       -0.03557711800820
H           25.01080396324951        2.64619576433171        0.03184859928827
H           26.91733855192788        4.53738680270003        0.28437515552980
H           30.21412152971127        4.81770873652473        2.61853630090145
H           30.24866622604328        7.28693565810420        2.88202471948971
H           29.28703170854410        9.70801120683743        0.17304191905179
H           28.88701336412955        7.73463382938184       -1.15653573399657
H           28.86100787365793        5.27952241848363       -1.42227942371755
H           32.14337530267716        4.43007925517906        0.80320071553572
H           34.01429689215605        2.50232354086389        0.59740891573724
H           33.96318840040771       -2.57427875852284       -0.55804044729296
H           32.05159062395295       -4.45821115047112       -0.80510175667574
H           28.35483457369392       -4.80857316574113       -2.41291281589109
H           28.33049985351161       -7.26072821564697       -2.70297062922396
H           28.91262123792410       -9.47980066459843       -1.95312497317331
H           30.49527748150420       -7.72085101095130        0.96670658514673
H           30.51540098823703       -5.25526423830234        1.26212100254767
H           26.82311132166197       -4.46304170639670       -0.23047091996742
H           24.95485319162345       -2.52532178387733       -0.04851710799538
Fe          61.47025977255293       -0.03532014665818       -0.02993178817466
C           64.86397825660814       -0.07042754992801       -0.05798805532325
C           64.20827036545229       -1.28093176518746       -0.13911509169271
C           64.88599389237029       -2.54001197631239       -0.21409132288282
C           63.92749785443691       -3.49512261421117       -0.23394780767030
C           62.66466493133095       -2.81615730111146       -0.18169404843364
N           62.85001059195783       -1.46159262087664       -0.12278527040565
C           61.43747921423842       -3.46874938489770       -0.14085503617580
C           61.42334288444064       -4.95004959635132       -0.18614056047912
C           60.95527374859201       -5.68630764747441        0.90591796018870
C           60.94286468669223       -7.06720885282992        0.86116105934030
C           61.39255242718328       -7.74232634474127       -0.27836820724163
C           61.36399623124164       -9.21643945093427       -0.30366741801075
O           60.96985112392007       -9.89365655370746        0.61062918323472
C           61.85871910468881       -7.00681595823195       -1.37059060191577
C           61.87638582648540       -5.62407332637582       -1.32307377537128
C           60.22533585265136       -2.79881772108290       -0.06300799840144
C           58.95228723503414       -3.45696216557262       -0.06287111577633
C           58.01039310782404       -2.48466188203950       -0.03513692572447
N           60.05840747256733       -1.43430725819702       -0.04021049311340
C           58.70964369221373       -1.23772645482653       -0.02503709084935
C           58.05580718387030        0.00004552234326       -0.01675088392972
C           58.73506522689843        1.22376580422502       -0.00689385740288
C           58.06284365843321        2.48528137515560       -0.02479959875681
C           59.02506306133081        3.43748011041803        0.00667089977880
C           60.28283018080711        2.75219882213461        0.05345469643793
N           60.08755041528153        1.39170621979950        0.02474665659050
C           61.50980196106752        3.39751890501198        0.10722332803845
C           61.52602132423652        4.87779915367613        0.16771638040367
C           62.09762364534555        5.62039192403497       -0.86880055475317
C           62.10596480068445        7.00308319920438       -0.81738626562722
C           61.54836384448369        7.66989585378689        0.27606448431524
C           61.54490391946721        9.14246762837888        0.35528662923643
O           61.08217459227504        9.76131618130859        1.27887463305195
C           60.98084165464011        6.92620403132285        1.31596023369813
C           60.96684337830663        5.54579476423995        1.26104981159316
C           62.72402536675974        2.71969434667662        0.10639035301844
C           64.00019548033521        3.36860697989371        0.19965021624645
C           64.93852805431743        2.39472997465801        0.14843700619147
C           64.23453403524627        1.15301000226187        0.03594880884213
N           62.88032178935985        1.36257119705823        0.02660401057278
H           65.94809271228431       -0.08197291769667       -0.06078386908709
H           65.95771303044577       -2.65713295346845       -0.23738818421815
H           64.05146471050313       -4.56527192211213       -0.26855215858531
H           60.61539967886659       -5.16528415727254        1.79377089754905
H           60.58601707055752       -7.64703727937876        1.70560890321983
H           61.74236196404372       -9.66340222958023       -1.24771786188158
H           62.20645938319079       -7.52276941278266       -2.25965974334739
H           62.22806089879183       -5.05477154652227       -2.17608223108466
H           58.80801165481138       -4.52453404561827       -0.09291905132080
H           56.93724330903859       -2.58646487134326       -0.02821006288905
H           56.99272737828768        2.60971833439088       -0.06279205926261
H           58.90443758970262        4.50824918193839       -0.00992287367870
H           62.52082616250276        5.10538305771201       -1.72382966546160
H           62.54565610102475        7.57274684783138       -1.62965134766415
H           62.01154938364309        9.64711130478211       -0.51738847631490
H           60.55348728187199        7.45261730338039        2.16262992829758
H           60.53499905503565        4.97104473940678        2.07250579081793
H           64.14571550775938        4.43186876560270        0.30005379636887
H           66.01216133356287        2.48750884006142        0.18793718515225
C           38.10046802900116       -0.05761874029822        0.03119886340844
C           36.86964379370359       -0.05434436303958        0.03671099166967
C           35.52932609296630       -0.04898946034643        0.04131459241088
C           34.30329789201891       -0.04207558203760        0.04010608621112
C           39.44049144518544       -0.05677294004783        0.02582987887909
C           40.66686241641246       -0.05481109233969        0.02031918435470
C           54.08823413777851        0.02193889168615       -0.01153120558793
C           52.85774099894709        0.02052396867490       -0.01052074169493
C           51.51713531527852        0.01645491254649       -0.00706353137300
C           50.29110659517014        0.01063929376484       -0.00424282211094
C           55.42918190895184        0.01968265019016       -0.01225871376775
C           56.65482700552035        0.01261862035798       -0.01798129492077
Fe          45.47863113422351       -0.02474139087691        0.01425761713410
C           42.06543066481235       -0.04701069817781        0.01733474533737
C           42.72986765106057        1.17522100572057        0.18965661745219
C           42.05162645054992        2.42487583444988        0.33090923347694
C           43.00058112284380        3.35070041955217        0.61336040650513
C           44.25314798257561        2.65754527189676        0.65202686336849
N           44.07466464631337        1.33117818892063        0.34399268897125
C           45.45779437454230        3.24493134982328        1.01931379503757
C           45.44769025435627        4.65840270232303        1.45955169221638
C           46.17038503730486        5.62462223503023        0.75337518608475
C           46.15719500789029        6.94333514451854        1.16523908123069
C           45.42818953859667        7.32410584570429        2.29655463242644
C           45.43505919785241        8.73785039804769        2.71819010158963
O           46.03632461110279        9.60466943505805        2.13796565384482
C           44.70854720914550        6.35874322948189        3.00445499231982
C           44.71516504382416        5.03963188832605        2.58699592745487
C           46.67159930288039        2.56867798699904        0.99184774367751
C           47.91745651203788        3.13707130159171        1.41115844228500
C           48.87859301100582        2.22708636455920        1.11898300989453
N           46.86637057168436        1.30197325536201        0.49861835584156
C           48.21428222957282        1.10503007509126        0.53476298423408
C           48.89186414253330        0.00073939841618        0.00074292895583
C           48.22647385133047       -1.11416855002221       -0.52650499338387
C           48.90275728877880       -2.22834749480515       -1.11186482897156
C           47.95302563863667       -3.15392798468407       -1.39249365354669
C           46.70221958128512       -2.60261259975674       -0.96535689663078
N           46.88195001756906       -1.33138676475784       -0.47840511038055
C           45.49840971786325       -3.29714882316323       -0.98147814088405
C           45.50786396727869       -4.71358850950487       -1.41221971082070
C           46.24899516699585       -5.66145910224579       -0.70138387226667
C           46.25706648231493       -6.98634873500599       -1.10004977148736
C           45.52985964955877       -7.38734640164555       -2.22314641866124
C           45.52459691489345       -8.79275426671635       -2.67160809171886
O           44.91579018286448       -9.18448252397477       -3.63359181263895
C           44.79152260090547       -6.43782116887786       -2.93697207504615
C           44.77711305848008       -5.11637586580090       -2.53396231133923
C           44.28702615390222       -2.72503509484092       -0.61278264552367
C           43.04367545058025       -3.43445540397814       -0.56877224973274
C           42.08298971957601       -2.51971995462634       -0.29015088125740
C           42.74505898796026       -1.26072378490202       -0.15500741770877
N           44.09153007007084       -1.39961669246034       -0.31058624464519
H           40.98729825559582        2.56107551876322        0.22735923250312
H           42.87333956570477        4.40823121386701        0.77759563806611
H           46.72757528778747        5.33365897825905       -0.12989630555286
H           46.70972452258101        7.70080756145171        0.61972690997095
H           44.83345073984626        8.94517798603108        3.62858576352563
H           44.14300541947161        6.64523658788848        3.88515211172890
H           44.16461674008734        4.28989675254151        3.14397005335818
H           48.03255093118845        4.10490079787035        1.87102285272673
H           49.94256018607651        2.29627470777712        1.27783995429966
H           49.96629367717806       -2.28218942864079       -1.27941951394242
H           48.07881143343878       -4.12143824156282       -1.85031881624878
H           46.80554621877214       -5.35409001384975        0.17677498058167
H           46.82966961137023       -7.71735141454081       -0.53858180142795
H           46.13662432492896       -9.47425471408487       -2.04321396260227
H           44.23309897304055       -6.75803446446000       -3.81004815987385
H           44.21282469861712       -4.38019198281705       -3.09511072549210
H           42.93023147569927       -4.49427508843646       -0.72803428819433
H           41.02054905346039       -2.66891929464798       -0.18511858088680

          :  Hamiltonian                  GFN1-xTB          :
         :: total energy            -346.250494361085 Eh    ::
         :: gradient norm              0.000796122189 Eh/a0 ::
         :: HOMO-LUMO gap              0.052709985401 eV    ::
         :: SCC energy              -351.783928150175 Eh    ::
         :: repulsion energy           5.705574113759 Eh    ::

    * Orbital Energies and Occupations

         #    Occupation            Energy/Eh            Energy/eV
      -------------------------------------------------------------
         1        2.0000           -0.7954155             -21.6444
       ...           ...                  ...                  ...
       304        2.0000           -0.4102440             -11.1633
       305        2.0000           -0.4098687             -11.1531
       306        1.9985           -0.4040415             -10.9945
       307        1.9929           -0.4025574             -10.9541
       308        1.9920           -0.4024460             -10.9511
       309        1.9917           -0.4024126             -10.9502
       310        1.9661           -0.4010666             -10.9136
       311        1.9581           -0.4008610             -10.9080
       312        1.9500           -0.4006882             -10.9033
       313        1.9478           -0.4006474             -10.9022
       314        1.9455           -0.4006042             -10.9010
       315        1.9430           -0.4005608             -10.8998
       316        1.2718           -0.3977380             -10.8230 (HOMO)
       317        0.3705           -0.3958009             -10.7703 (LUMO)
       318        0.3374           -0.3956932             -10.7674
       319        0.3348           -0.3956841             -10.7671
       320                         -0.3584757              -9.7546
       321                         -0.3478846              -9.4664
       322                         -0.3473268              -9.4512
       323                         -0.3439987              -9.3607
       324                         -0.3436162              -9.3503
       325                         -0.3413043              -9.2874
       326                         -0.3321760              -9.0390
       327                         -0.3292058              -8.9581
       ...                                ...                  ...
       667                          1.5588934              42.4196
      -------------------------------------------------------------
                  HL-Gap            0.0019371 Eh            0.0527 eV

Wiberg/Mayer (AO) data.
largest (>0.10) Wiberg bond orders for each atom

     #   Z sym  total        # sym  WBO       # sym  WBO       # sym  WBO
 ---------------------------------------------------------------------------
     1  26 Fe   3.088 --    41 N    0.664     7 N    0.663    20 N    0.656
                            27 N    0.656
     2   6 C    3.918 --    40 C    1.364     3 C    1.363    42 H    0.970
     3   6 C    3.923 --     2 C    1.363     7 N    1.209     4 C    1.172
     4   6 C    3.959 --     5 C    1.651     3 C    1.172    43 H    0.975
     5   6 C    3.961 --     4 C    1.651     6 C    1.174    44 H    0.973
     6   6 C    3.919 --     8 C    1.312     7 N    1.226     5 C    1.174
     7   7 N    3.379 --     6 C    1.226     3 C    1.209     1 Fe   0.663
     8   6 C    3.920 --    17 C    1.335     6 C    1.312     9 C    1.026
     9   6 C    3.986 --    16 C    1.385    10 C    1.383     8 C    1.026
    10   6 C    3.988 --    11 C    1.469     9 C    1.383    45 H    0.972
                            15 C    0.100
    11   6 C    3.988 --    10 C    1.469    12 C    1.371    46 H    0.968
                            16 C    0.101
    12   6 C    3.984 --    15 C    1.379    11 C    1.371    13 C    1.048
    13   6 C    3.864 --    14 O    1.809    12 C    1.048    47 H    0.942
    14   8 O    2.005 --    13 C    1.809
    15   6 C    3.993 --    16 C    1.464    12 C    1.379    48 H    0.971
                            10 C    0.100
    16   6 C    3.987 --    15 C    1.464     9 C    1.385    49 H    0.972
                            11 C    0.101
    17   6 C    3.916 --     8 C    1.335    20 N    1.199    18 C    1.178
    18   6 C    3.956 --    19 C    1.640    17 C    1.178    50 H    0.972
    19   6 C    3.960 --    18 C    1.640    21 C    1.187    51 H    0.973
    20   7 N    3.378 --    21 C    1.248    17 C    1.199     1 Fe   0.656
    21   6 C    3.901 --    22 C    1.249    20 N    1.248    19 C    1.187
    22   6 C    3.919 --    23 C    1.249    21 C    1.249   124 C    1.207
    23   6 C    3.902 --    22 C    1.249    27 N    1.247    24 C    1.187
    24   6 C    3.960 --    25 C    1.640    23 C    1.187    52 H    0.973
    25   6 C    3.956 --    24 C    1.640    26 C    1.178    53 H    0.973
    26   6 C    3.916 --    28 C    1.334    27 N    1.200    25 C    1.178
    27   7 N    3.378 --    23 C    1.247    26 C    1.200     1 Fe   0.656
    28   6 C    3.921 --    26 C    1.334    37 C    1.311    29 C    1.030
    29   6 C    3.986 --    30 C    1.384    36 C    1.381    28 C    1.030
    30   6 C    3.987 --    31 C    1.465    29 C    1.384    54 H    0.972
                            35 C    0.101
    31   6 C    3.993 --    30 C    1.465    32 C    1.379    55 H    0.971
                            36 C    0.100
    32   6 C    3.984 --    31 C    1.379    35 C    1.370    33 C    1.048
    33   6 C    3.864 --    34 O    1.809    32 C    1.048    56 H    0.942
    34   8 O    2.005 --    33 C    1.809
    35   6 C    3.988 --    36 C    1.470    32 C    1.370    57 H    0.968
                            30 C    0.101
    36   6 C    3.987 --    35 C    1.470    29 C    1.381    58 H    0.972
                            31 C    0.100
    37   6 C    3.919 --    28 C    1.311    41 N    1.227    38 C    1.174
    38   6 C    3.961 --    39 C    1.650    37 C    1.174    59 H    0.973
    39   6 C    3.959 --    38 C    1.650    40 C    1.172    60 H    0.975
    40   6 C    3.923 --     2 C    1.364    41 N    1.209    39 C    1.172
    41   7 N    3.379 --    37 C    1.227    40 C    1.209     1 Fe   0.664
    42   1 H    1.000 --     2 C    0.970
    43   1 H    0.997 --     4 C    0.975
    44   1 H    1.004 --     5 C    0.973
    45   1 H    1.003 --    10 C    0.972
    46   1 H    1.005 --    11 C    0.968
    47   1 H    1.010 --    13 C    0.942
    48   1 H    1.000 --    15 C    0.971
    49   1 H    1.003 --    16 C    0.972
    50   1 H    1.004 --    18 C    0.972
    51   1 H    1.001 --    19 C    0.973
    52   1 H    1.001 --    24 C    0.973
    53   1 H    1.003 --    25 C    0.973
    54   1 H    1.003 --    30 C    0.972
    55   1 H    1.000 --    31 C    0.971
    56   1 H    1.010 --    33 C    0.942
    57   1 H    1.005 --    35 C    0.968
    58   1 H    1.003 --    36 C    0.972
    59   1 H    1.004 --    38 C    0.973
    60   1 H    0.997 --    39 C    0.975
    61  26 Fe   3.084 --   101 N    0.664    67 N    0.664    87 N    0.657
                            80 N    0.657
    62   6 C    3.919 --   100 C    1.364    63 C    1.364   102 H    0.970
    63   6 C    3.923 --    62 C    1.364    67 N    1.209    64 C    1.172
    64   6 C    3.959 --    65 C    1.651    63 C    1.172   103 H    0.975
    65   6 C    3.961 --    64 C    1.651    66 C    1.174   104 H    0.973
    66   6 C    3.919 --    68 C    1.313    67 N    1.226    65 C    1.174
    67   7 N    3.380 --    66 C    1.226    63 C    1.209    61 Fe   0.664
    68   6 C    3.922 --    77 C    1.335    66 C    1.313    69 C    1.027
    69   6 C    3.986 --    76 C    1.385    70 C    1.382    68 C    1.027
    70   6 C    3.987 --    71 C    1.470    69 C    1.382   105 H    0.972
                            75 C    0.100
    71   6 C    3.988 --    70 C    1.470    72 C    1.371   106 H    0.968
                            76 C    0.101
    72   6 C    3.984 --    75 C    1.379    71 C    1.371    73 C    1.048
    73   6 C    3.864 --    74 O    1.809    72 C    1.048   107 H    0.942
    74   8 O    2.005 --    73 C    1.809
    75   6 C    3.993 --    76 C    1.464    72 C    1.379   108 H    0.971
                            70 C    0.100
    76   6 C    3.987 --    75 C    1.464    69 C    1.385   109 H    0.972
                            71 C    0.101
    77   6 C    3.916 --    68 C    1.335    80 N    1.200    78 C    1.178
    78   6 C    3.956 --    79 C    1.641    77 C    1.178   110 H    0.972
    79   6 C    3.960 --    78 C    1.641    81 C    1.186   111 H    0.973
    80   7 N    3.379 --    81 C    1.247    77 C    1.200    61 Fe   0.657
    81   6 C    3.902 --    82 C    1.251    80 N    1.247    79 C    1.186
    82   6 C    3.921 --    83 C    1.251    81 C    1.251   132 C    1.203
    83   6 C    3.902 --    82 C    1.251    87 N    1.246    84 C    1.186
    84   6 C    3.960 --    85 C    1.640    83 C    1.186   112 H    0.973
    85   6 C    3.956 --    84 C    1.640    86 C    1.178   113 H    0.972
    86   6 C    3.916 --    88 C    1.334    87 N    1.201    85 C    1.178
    87   7 N    3.379 --    83 C    1.246    86 C    1.201    61 Fe   0.657
    88   6 C    3.922 --    86 C    1.334    97 C    1.312    89 C    1.029
    89   6 C    3.986 --    90 C    1.384    96 C    1.381    88 C    1.029
    90   6 C    3.987 --    91 C    1.464    89 C    1.384   114 H    0.972
                            95 C    0.101
    91   6 C    3.993 --    90 C    1.464    92 C    1.379   115 H    0.971
                            96 C    0.100
    92   6 C    3.984 --    91 C    1.379    95 C    1.370    93 C    1.048
    93   6 C    3.864 --    94 O    1.809    92 C    1.048   116 H    0.942
    94   8 O    2.005 --    93 C    1.809
    95   6 C    3.988 --    96 C    1.470    92 C    1.370   117 H    0.968
                            90 C    0.101
    96   6 C    3.987 --    95 C    1.470    89 C    1.381   118 H    0.972
                            91 C    0.100
    97   6 C    3.919 --    88 C    1.312   101 N    1.226    98 C    1.174
    98   6 C    3.961 --    99 C    1.650    97 C    1.174   119 H    0.973
    99   6 C    3.958 --    98 C    1.650   100 C    1.172   120 H    0.975
   100   6 C    3.923 --    62 C    1.364   101 N    1.209    99 C    1.172
   101   7 N    3.380 --    97 C    1.226   100 C    1.209    61 Fe   0.664
   102   1 H    1.000 --    62 C    0.970
   103   1 H    0.997 --    64 C    0.975
   104   1 H    1.004 --    65 C    0.973
   105   1 H    1.003 --    70 C    0.972
   106   1 H    1.005 --    71 C    0.968
   107   1 H    1.010 --    73 C    0.942
   108   1 H    1.000 --    75 C    0.971
   109   1 H    1.003 --    76 C    0.972
   110   1 H    1.004 --    78 C    0.972
   111   1 H    1.001 --    79 C    0.973
   112   1 H    1.001 --    84 C    0.973
   113   1 H    1.004 --    85 C    0.972
   114   1 H    1.003 --    90 C    0.972
   115   1 H    1.000 --    91 C    0.971
   116   1 H    1.010 --    93 C    0.942
   117   1 H    1.005 --    95 C    0.968
   118   1 H    1.003 --    96 C    0.972
   119   1 H    1.004 --    98 C    0.973
   120   1 H    0.997 --    99 C    0.975
   121   6 C    3.914 --   122 C    2.332   125 C    1.359   124 C    0.186
   122   6 C    3.911 --   121 C    2.332   123 C    1.357   126 C    0.185
   123   6 C    3.923 --   124 C    2.417   122 C    1.357
   124   6 C    3.874 --   123 C    2.417    22 C    1.207   121 C    0.186
   125   6 C    3.918 --   126 C    2.413   121 C    1.359
   126   6 C    3.877 --   125 C    2.413   134 C    1.213   122 C    0.185
   127   6 C    3.911 --   128 C    2.337   131 C    1.353   130 C    0.185
   128   6 C    3.914 --   127 C    2.337   129 C    1.355   132 C    0.186
   129   6 C    3.918 --   130 C    2.417   128 C    1.355
   130   6 C    3.877 --   129 C    2.417   154 C    1.210   127 C    0.185
   131   6 C    3.924 --   132 C    2.422   127 C    1.353
   132   6 C    3.875 --   131 C    2.422    82 C    1.203   128 C    0.186
   133  26 Fe   3.058 --   152 N    0.648   159 N    0.648   139 N    0.648
                           173 N    0.648
   134   6 C    3.904 --   172 C    1.244   135 C    1.244   126 C    1.213
   135   6 C    3.903 --   139 N    1.248   134 C    1.244   136 C    1.191
   136   6 C    3.959 --   137 C    1.634   135 C    1.191   174 H    0.973
   137   6 C    3.958 --   136 C    1.634   138 C    1.183   175 H    0.973
   138   6 C    3.914 --   140 C    1.321   139 N    1.205   137 C    1.183
   139   7 N    3.367 --   135 C    1.248   138 C    1.205   133 Fe   0.648
   140   6 C    3.913 --   138 C    1.321   149 C    1.321   141 C    1.032
   141   6 C    3.986 --   148 C    1.383   142 C    1.380   140 C    1.032
   142   6 C    3.987 --   143 C    1.470   141 C    1.380   176 H    0.972
                           147 C    0.100
   143   6 C    3.988 --   142 C    1.470   144 C    1.371   177 H    0.967
                           148 C    0.101
   144   6 C    3.983 --   147 C    1.380   143 C    1.371   145 C    1.047
   145   6 C    3.864 --   146 O    1.811   144 C    1.047   178 H    0.942
   146   8 O    2.006 --   145 C    1.811
   147   6 C    3.993 --   148 C    1.464   144 C    1.380   179 H    0.971
                           142 C    0.100
   148   6 C    3.987 --   147 C    1.464   141 C    1.383   180 H    0.972
                           143 C    0.101
   149   6 C    3.914 --   140 C    1.321   152 N    1.205   150 C    1.182
   150   6 C    3.958 --   151 C    1.634   149 C    1.182   181 H    0.973
   151   6 C    3.959 --   150 C    1.634   153 C    1.190   182 H    0.973
   152   7 N    3.367 --   153 C    1.247   149 C    1.205   133 Fe   0.648
   153   6 C    3.903 --   152 N    1.247   154 C    1.246   151 C    1.190
   154   6 C    3.904 --   153 C    1.246   155 C    1.246   130 C    1.210
   155   6 C    3.903 --   159 N    1.247   154 C    1.246   156 C    1.191
   156   6 C    3.959 --   157 C    1.634   155 C    1.191   183 H    0.973
   157   6 C    3.958 --   156 C    1.634   158 C    1.183   184 H    0.973
   158   6 C    3.914 --   160 C    1.320   159 N    1.206   157 C    1.183
   159   7 N    3.367 --   155 C    1.247   158 C    1.206   133 Fe   0.648
   160   6 C    3.913 --   169 C    1.322   158 C    1.320   161 C    1.032
   161   6 C    3.986 --   162 C    1.383   168 C    1.381   160 C    1.032
   162   6 C    3.987 --   163 C    1.464   161 C    1.383   185 H    0.972
                           167 C    0.101
   163   6 C    3.993 --   162 C    1.464   164 C    1.380   186 H    0.971
                           168 C    0.100
   164   6 C    3.983 --   163 C    1.380   167 C    1.371   165 C    1.047
   165   6 C    3.864 --   166 O    1.811   164 C    1.047   187 H    0.942
   166   8 O    2.006 --   165 C    1.811
   167   6 C    3.988 --   168 C    1.470   164 C    1.371   188 H    0.967
                           162 C    0.101
   168   6 C    3.987 --   167 C    1.470   161 C    1.381   189 H    0.972
                           163 C    0.100
   169   6 C    3.914 --   160 C    1.322   173 N    1.204   170 C    1.182
   170   6 C    3.958 --   171 C    1.634   169 C    1.182   190 H    0.973
   171   6 C    3.959 --   170 C    1.634   172 C    1.190   191 H    0.973
   172   6 C    3.903 --   173 N    1.248   134 C    1.244   171 C    1.190
   173   7 N    3.367 --   172 C    1.248   169 C    1.204   133 Fe   0.648
   174   1 H    1.001 --   136 C    0.973
   175   1 H    1.003 --   137 C    0.973
   176   1 H    1.004 --   142 C    0.972
   177   1 H    1.004 --   143 C    0.967
   178   1 H    1.010 --   145 C    0.942
   179   1 H    1.000 --   147 C    0.971
   180   1 H    1.004 --   148 C    0.972
   181   1 H    1.003 --   150 C    0.973
   182   1 H    1.001 --   151 C    0.973
   183   1 H    1.001 --   156 C    0.973
   184   1 H    1.003 --   157 C    0.973
   185   1 H    1.004 --   162 C    0.972
   186   1 H    1.000 --   163 C    0.971
   187   1 H    1.010 --   165 C    0.942
   188   1 H    1.004 --   167 C    0.967
   189   1 H    1.004 --   168 C    0.972
   190   1 H    1.003 --   170 C    0.973
   191   1 H    1.001 --   171 C    0.973
 ---------------------------------------------------------------------------

           -------------------------------------------------
          | TOTAL ENERGY             -346.250494361085 Eh   |
          | GRADIENT NORM               0.000796122189 Eh/α |
          | HOMO-LUMO GAP               0.052709985401 eV   |
           -------------------------------------------------

 * finished run on 2022/07/29 at 16:35:05.633
