   * xtb version 6.5.1 (b24c23e) compiled by 'conda@728c89f4b128' on 2022-07-12
          program call               : xtb Cu_Ph2Me_C8_3.xyz --gfn 1 --opt -T 48

   ID    Z sym.   atoms
    1   29 Cu     1, 69, 153
    2    6 C      2-6, 8-11, 13-31, 34-41, 70-74, 76-79, 81-99, 102-109,
                  137-152, 154-158, 160-163, 165-183, 186-193
    3    7 N      7, 12, 32, 33, 75, 80, 100, 101, 159, 164, 184, 185
    4    1 H      42-68, 110-136, 194-219

          :  Hamiltonian                  GFN1-xTB          :
 * total energy  :  -355.7553286 Eh     change       -0.5951961E-08 Eh
 * total energy  :  -356.2207716 Eh     change       -0.4654430E+00 Eh
 * total energy  :  -356.3706578 Eh     change       -0.1498862E+00 Eh
 * total energy  :  -356.4493925 Eh     change       -0.7873468E-01 Eh
 * total energy  :  -356.5188880 Eh     change       -0.6949549E-01 Eh
 * total energy  :  -356.5901788 Eh     change       -0.7129084E-01 Eh
 * total energy  :  -356.6491896 Eh     change       -0.5901077E-01 Eh
 * total energy  :  -356.6815692 Eh     change       -0.3237959E-01 Eh
 * total energy  :  -356.7071036 Eh     change       -0.2553439E-01 Eh
 * total energy  :  -356.7249671 Eh     change       -0.1786355E-01 Eh
 * total energy  :  -356.8062859 Eh     change       -0.1535595E-04 Eh
 * total energy  :  -356.8062964 Eh     change       -0.1046024E-04 Eh
 * total energy  :  -356.8063090 Eh     change       -0.1258987E-04 Eh
 * total energy  :  -356.8063233 Eh     change       -0.1433990E-04 Eh
 * total energy  :  -356.8063354 Eh     change       -0.1212122E-04 Eh
 * total energy  :  -356.8063451 Eh     change       -0.9636914E-05 Eh
 * total energy  :  -356.8063532 Eh     change       -0.8127308E-05 Eh
 * total energy  :  -356.8063598 Eh     change       -0.6635377E-05 Eh
 * total energy  :  -356.8063621 Eh     change       -0.2309532E-05 Eh
   *** GEOMETRY OPTIMIZATION CONVERGED AFTER 94 ITERATIONS ***

 final structure:
================
219
 xtb: 6.5.1 (b24c23e)
Cu          25.80530324193628        0.05058870251245       -0.09840124995248
C           22.40313653585165        0.15154216242509       -0.26635062851411
C           23.04641958089382        1.33036278063535        0.07974073847771
C           22.38030067920734        2.55938018771851        0.40335532681448
C           23.34481269821990        3.46422303907059        0.70360799871188
C           24.61036313127406        2.79851058338399        0.55506132183168
N           24.39744191976474        1.50206885086263        0.18370500528154
C           25.85769804101654        3.38588621465563        0.77841010767701
C           27.08439656730274        2.73061459396045        0.66290487785250
C           28.36623895679929        3.35286480920941        0.83635156461588
C           29.30549828593884        2.39672355032775        0.62274383787798
N           27.26399232037120        1.41141071372502        0.33832165549611
C           28.60565477072740        1.18602909928231        0.31380857645172
C           29.23258069266565       -0.03993211016024        0.02698712632107
C           28.56382508400793       -1.23657285469006       -0.28722950714501
C           29.22155120900690       -2.47364257638169       -0.58375781423509
C           28.25050108037739       -3.38430084203492       -0.84796285617322
C           26.99098591395700       -2.70961014421401       -0.70999261606538
C           25.74364514753994       -3.29697555431123       -0.92668676314540
C           25.71590381767690       -4.74159909309733       -1.27139309283279
C           25.23245608072693       -5.16104492731248       -2.50848130978560
C           25.20249452070357       -6.51425387596396       -2.83418836833412
C           24.66573726849320       -6.95380840732444       -4.16973012662737
C           25.65546554959663       -7.44756390522964       -1.90885962231490
C           26.14015484959379       -7.04373675229115       -0.66673243592745
C           26.63575188258631       -8.06941530353153        0.31669503240539
C           26.17074652295722       -5.69004672476379       -0.35498103220746
C           24.51836760765762       -2.63144336197536       -0.84498462347062
C           23.23138246241581       -3.24204738673223       -1.03948158482184
C           22.29903647638143       -2.27345521769549       -0.86151828317535
C           23.00628456920734       -1.06554685805035       -0.54585868491049
N           24.34988892160220       -1.31110449151503       -0.54095164578046
N           27.21567411258544       -1.40075972016015       -0.37183042219268
C           25.87906118872801        4.81935197081584        1.16705525638252
C           25.40583070010719        5.79330106615276        0.28866520626857
C           25.42006649872960        7.13605372124773        0.64916428512296
C           24.93211945900074        8.18821628349965       -0.30982389518192
C           25.90879794612965        7.50128363803522        1.90047212939368
C           26.38360356706280        6.54103059184790        2.78821852521632
C           26.88585432490002        6.94306589740215        4.14868433607302
C           26.36835362596659        5.20096055109940        2.41493971604795
H           21.31917520384190        0.18080284064277       -0.30893941753402
H           21.31026541708472        2.69603038869767        0.40472382784998
H           23.21790853541110        4.49033433351249        1.00928230841057
H           28.52273098441141        4.39184477557447        1.07749023846395
H           30.37861014574353        2.49385379684446        0.66426524805742
H           30.29041672433348       -2.61592070663344       -0.59084295597772
H           28.37174418400750       -4.41904562464970       -1.12492010555494
H           24.89258314430814       -4.42332733363024       -3.22722084879131
H           24.96204006341942       -7.97888577699521       -4.39184018316376
H           23.57454709987190       -6.90482192403469       -4.16674875077917
H           25.02963657710862       -6.30142404970933       -4.96440162771435
H           25.63215909371919       -8.50415285338568       -2.15535187954132
H           26.78786216316330       -7.62612386170261        1.30061859384423
H           25.92243040104675       -8.88982980169412        0.40695041614038
H           27.58596703502162       -8.48569499647193       -0.02451418138640
H           26.53450333068743       -5.36280383915874        0.61291774060462
H           23.06901257907649       -4.28227847882970       -1.27179495990947
H           21.22556838963970       -2.35725483694938       -0.92704950526715
H           25.03884852986911        5.49691854042010       -0.68793833267897
H           24.41403831548203        8.98635242854492        0.22278297206331
H           24.25486030913882        7.75869140111343       -1.04805820838856
H           25.77935543348554        8.62968586851482       -0.83953860610896
H           25.91937679476752        8.54809023610785        2.18642798779063
H           26.06387051772671        6.92321901038036        4.86803441017128
H           27.29515420328491        7.95329642330120        4.12914035432000
H           27.65710814277210        6.25557566201324        4.49663924581916
H           26.72431796847807        4.44191727386564        3.10300279947736
Cu          63.02366738271878        0.05602886741110       -0.07091839884246
C           66.42479034347500        0.19154391678802       -0.23547934596247
C           65.77571652376764       -0.46856459814702       -1.26800723646836
C           66.43532717167150       -1.11709251845026       -2.36506847849733
C           65.46650037481648       -1.66030573328252       -3.14315004206793
C           64.20480573836095       -1.33982602732967       -2.53299589785185
N           64.42422011117233       -0.62125826016414       -1.39304701782285
C           62.95556111286184       -1.72904403999861       -3.02084719413122
C           61.73271929291958       -1.44265849691198       -2.41270452334355
C           60.44845390486130       -1.79837274761864       -2.94631610503686
C           59.51367173283955       -1.32432518951575       -2.08421311334850
N           61.55911830357044       -0.75366838846310       -1.24114659014009
C           60.21863333070925       -0.67356265240218       -1.02072957667488
C           59.59751112478882       -0.04359441786891        0.07225293696177
C           60.27113883715230        0.60446734448471        1.12246774194449
C           59.61905456434404        1.24349056046959        2.22587644474521
C           60.59429058649899        1.75397091224563        3.01974353172576
C           61.85084216276362        1.42654721228739        2.40756300747520
C           63.10111795125059        1.79652889429404        2.90558039087046
C           63.13547100023217        2.53250341464729        4.19539561392867
C           63.62529314878456        3.83523942372525        4.25097648512036
C           63.66136294877160        4.52620319376887        5.45903548738882
C           64.20552632309348        5.92856510610939        5.50686837576947
C           63.20782711090931        3.90113364013126        6.61497606865822
C           62.71671133283921        2.59804255019100        6.57581460391201
C           62.21998703303012        1.94310752777202        7.83639497666087
C           62.68036656217711        1.92024546161968        5.36343299609364
C           64.32329238688122        1.52719196780170        2.28542704459520
C           65.61340157459227        1.88215524724747        2.81149884401944
C           66.54094780710049        1.43821966904102        1.92739364849967
C           65.82769678429715        0.79854045459771        0.85919379926832
N           64.48533557034003        0.86465171077742        1.10263359517516
N           61.62022571061324        0.73054424530009        1.25002409582378
C           62.92681639663539       -2.50759082327862       -4.28581003145205
C           63.36870097677611       -1.93201190936864       -5.47628040979881
C           63.34496117446539       -2.65738128970817       -6.66226563510447
C           63.79649762946262       -2.02599458060848       -7.95154667568230
C           62.87984630555528       -3.96946426943980       -6.65024716475497
C           62.43740344037941       -4.55810448179429       -5.46986088540477
C           61.96139677998967       -5.98571392142290       -5.46173194933495
C           62.46056899196115       -3.82081625517103       -4.29034808399877
H           67.50848263370922        0.22495351083370       -0.28178152928373
H           67.50436311895540       -1.15132681984665       -2.50525182492446
H           65.58766714575107       -2.23664411804161       -4.04628086331063
H           60.28762577266085       -2.33141960969668       -3.86942657343962
H           58.44039292558919       -1.39998063631623       -2.15535999079089
H           58.55079776418224        1.29282896481135        2.36439018891475
H           60.47783109257421        2.31435826007078        3.93325423646704
H           63.96527596807209        4.31744791222517        3.34091443466760
H           63.90563606751952        6.43291506440094        6.42536381024198
H           65.29692305685489        5.90566743094073        5.46862864046764
H           63.85100113612886        6.50856525219602        4.65400075438328
H           63.23576861469333        4.43331151535906        7.56032433849700
H           62.06874474456315        0.87405701231974        7.68799793792575
H           62.93192932892605        2.08815270945330        8.65009814131195
H           61.26893758398199        2.38706538836943        8.13816449721844
H           62.31181078931439        0.90113560362007        5.32088225380415
H           65.78098055092808        2.39633828581957        3.74420479030418
H           67.61485496671769        1.52243914880655        1.98476229548092
H           63.71828992634096       -0.90534039209988       -5.47413520909796
H           64.31459232140202       -2.75314690343566       -8.57757604985093
H           64.46330818208459       -1.18499237435405       -7.76121155326153
H           62.93137774244033       -1.65700641960910       -8.50719680332715
H           62.86223155201599       -4.53965690275152       -7.57342497969224
H           62.79918955730125       -6.65446443406028       -5.25100719843134
H           61.54232875145100       -6.26150106368119       -6.42960192109679
H           61.20449575299654       -6.13823479069742       -4.69205343153002
H           62.12865516988911       -4.27195874011247       -3.36159257715431
C           30.63772796858413       -0.06800832724674        0.04809054817716
C           31.86219713497263       -0.08290584477609        0.05958042992785
C           33.20504461737000       -0.09760082095114        0.06828345048245
C           34.43585483510869       -0.10493740340005        0.07418078210802
C           35.77393899287889       -0.11149991775569        0.07285965780655
C           37.00476225536453       -0.11192362864832        0.07388666333403
C           38.34746830071129       -0.11162523826688        0.07233292551857
C           39.57233237969071       -0.10907521943526        0.06676077454726
C           49.25660461348312       -0.08737574181707        0.11216766350014
C           50.48106147807614       -0.08915859406591        0.12493937558887
C           51.82433105700143       -0.08657282996365        0.13697540430613
C           53.05487702536975       -0.08104116378002        0.14362651782395
C           54.39361039820859       -0.07869951803316        0.14545035494235
C           55.62403716963012       -0.06967615124056        0.13987093963903
C           56.96756334966429       -0.06360806079031        0.12854355007452
C           58.19175176094394       -0.05773421002720        0.11194032584858
Cu          44.41427348879111       -0.10112941639711        0.06496187663621
C           40.97713527235245       -0.10751007767702        0.06275834661818
C           41.62425750358580        1.13567867234358       -0.06048420096014
C           40.94559512708932        2.39378263253735       -0.14327522670154
C           41.90066638671077        3.34984833209973       -0.27247656891183
C           43.16960620113443        2.67943156988587       -0.27510240814522
N           42.96818731286045        1.33177520237827       -0.13636975825449
C           44.40845211736674        3.31417188746324       -0.38430148185651
C           45.64992243949749        2.67882488354840       -0.31509271147358
C           46.91765762867405        3.33091430252816       -0.48104070438889
C           47.87600090369305        2.37974511320884       -0.34112140011387
N           45.85542230137325        1.34303571408182       -0.09274647041093
C           47.20059585755756        1.14024963889453       -0.10060152715004
C           47.85114295206079       -0.09108368477018        0.09733798591395
C           47.20412549453441       -1.32731520108583        0.27530302873767
C           47.88186594735439       -2.56606783766576        0.51315988494717
C           46.92680276669401       -3.52537356504558        0.61502260892277
C           45.65892070463063       -2.87797553050672        0.43301723225063
C           44.42048217647599       -3.52193044052596        0.46971072809085
C           44.42520874949847       -4.99793940152637        0.63265764351121
C           43.83878706765507       -5.58557869059195        1.75188101625193
C           43.83956796992586       -6.96844386731822        1.90605568989461
C           43.22423120939029       -7.59254487689222        3.12940540661343
C           44.42999206572163       -7.76287106778728        0.92878435787713
C           45.01753938253468       -7.19079300889003       -0.19657069074070
C           45.66319381736164       -8.06347834379563       -1.23882449721234
C           45.01531642333416       -5.80792763859171       -0.33736727031969
C           43.17926794983648       -2.89128701630276        0.36477188476871
C           41.91273987756324       -3.56608763790874        0.34919499490239
C           40.95415239200538       -2.61108327146776        0.23978138739817
C           41.62841174583545       -1.34949903599156        0.17674706908815
N           42.97296947453047       -1.54201853786731        0.24944819139144
N           45.86065439739691       -1.53778020869569        0.23620828999528
C           44.40529788669569        4.78445470152747       -0.59290685351354
C           44.97957584970165        5.63193621718831        0.35290304406892
C           44.97738401838833        7.00978740035071        0.16086467280248
C           45.61265197313818        7.91682041567389        1.17991170385277
C           44.40090458753388        7.53672883198872       -0.99048850051727
C           43.82368232458502        6.70338737398295       -1.94457613907414
C           43.22113733539113        7.28495102260693       -3.19494589087345
C           43.82727688774420        5.32822667872556       -1.73953829529863
H           39.87558057552848        2.52023787535008       -0.10051287254842
H           41.76280283051992        4.41648418398670       -0.34559908622180
H           47.05318636795343        4.37966943447668       -0.69023182210311
H           48.94624284533685        2.49583485971289       -0.40321472385979
H           48.95115401532911       -2.67668023460423        0.59759257097659
H           47.06385248668395       -4.57669960483874        0.80996332389632
H           43.39140668694120       -4.95541611535895        2.51280233446416
H           42.91291326485898       -8.61777954505779        2.92876349746711
H           43.95275922386724       -7.61052935852241        3.94322570860861
H           42.35892913809919       -7.01915020359424        3.46302422365679
H           44.43018454576288       -8.84212881677207        1.04224298172680
H           45.76358608108648       -7.53182465719373       -2.18501782870617
H           45.07649445841891       -8.96803737282035       -1.40251458395098
H           46.65999260420752       -8.36283303515467       -0.90714102775495
H           45.45738325312161       -5.35045287875287       -1.21574130955252
H           41.77828847361340       -4.63432508161754        0.40222125979324
H           39.88456969162903       -2.74061734412436        0.19558923843310
H           45.41356894465265        5.21045150029005        1.25304493247897
H           45.15758959198696        8.90714630679263        1.15712299397337
H           46.67810338777266        8.02674954935217        0.96491711711138
H           45.51104121677013        7.50382807041041        2.18378255717491
H           44.39772916542003        8.61079462668495       -1.14551828882413
H           42.76065556348531        8.25172292300909       -2.98957806683626
H           42.46803964079508        6.61610791283181       -3.61175800491026
H           43.99909379011870        7.43341838943287       -3.94737685208297
H           43.39083899787163        4.66756468231094       -2.48069187402391

          :  Hamiltonian                  GFN1-xTB          :
         :: total energy            -356.806362136542 Eh    ::
         :: gradient norm              0.000719467914 Eh/a0 ::
         :: HOMO-LUMO gap              0.000009879083 eV    ::
         :: SCC energy              -362.765680542081 Eh    ::
         :: repulsion energy           6.144908264591 Eh    ::

    * Orbital Energies and Occupations

         #    Occupation            Energy/Eh            Energy/eV
      -------------------------------------------------------------
         1        2.0000           -0.7623353             -20.7442
       ...           ...                  ...                  ...
       323        2.0000           -0.4064798             -11.0609
       324        2.0000           -0.4063869             -11.0584
       325        2.0000           -0.4061564             -11.0521
       326        2.0000           -0.4048267             -11.0159
       327        2.0000           -0.4034910             -10.9795
       328        2.0000           -0.3936675             -10.7122
       329        2.0000           -0.3936248             -10.7111
       330        2.0000           -0.3935260             -10.7084
       331        2.0000           -0.3855727             -10.4920
       332        2.0000           -0.3823589             -10.4045
       333        2.0000           -0.3770013             -10.2587
       334        1.0179           -0.3541946              -9.6381
       335        0.9911           -0.3541374              -9.6366 (HOMO)
       336        0.9910           -0.3541370              -9.6366 (LUMO)
       337        0.0000           -0.3383599              -9.2072
       338                         -0.3319448              -9.0327
       339                         -0.3284908              -8.9387
       340                         -0.3253226              -8.8525
       341                         -0.3253072              -8.8521
       342                         -0.3251009              -8.8464
       343                         -0.3058337              -8.3222
       344                         -0.2983227              -8.1178
       345                         -0.2970405              -8.0829
       346                         -0.2923970              -7.9565
       ...                                ...                  ...
       731                          1.6084951              43.7694
      -------------------------------------------------------------
                  HL-Gap            0.0000004 Eh            0.0000 eV

Wiberg/Mayer (AO) data.
largest (>0.10) Wiberg bond orders for each atom

     #   Z sym  total        # sym  WBO       # sym  WBO       # sym  WBO
 ---------------------------------------------------------------------------
     1  29 Cu   2.192 --    32 N    0.507     7 N    0.506    33 N    0.504
                            12 N    0.504
     2   6 C    3.928 --    31 C    1.361     3 C    1.361    42 H    0.971
     3   6 C    3.918 --     2 C    1.361     7 N    1.229     4 C    1.171
     4   6 C    3.955 --     5 C    1.655     3 C    1.171    43 H    0.976
     5   6 C    3.958 --     4 C    1.655     6 C    1.173    44 H    0.973
     6   6 C    3.912 --     8 C    1.319     7 N    1.238     5 C    1.173
     7   7 N    3.244 --     6 C    1.238     3 C    1.229     1 Cu   0.506
     8   6 C    3.935 --     9 C    1.329     6 C    1.319    34 C    1.023
     9   6 C    3.908 --     8 C    1.329    12 N    1.220    10 C    1.179
    10   6 C    3.954 --    11 C    1.642     9 C    1.179    45 H    0.973
    11   6 C    3.956 --    10 C    1.642    13 C    1.187    46 H    0.974
    12   7 N    3.248 --    13 C    1.257     9 C    1.220     1 Cu   0.504
    13   6 C    3.897 --    14 C    1.258    12 N    1.257    11 C    1.187
    14   6 C    3.939 --    15 C    1.258    13 C    1.258   137 C    1.190
    15   6 C    3.897 --    14 C    1.258    33 N    1.257    16 C    1.187
    16   6 C    3.956 --    17 C    1.642    15 C    1.187    47 H    0.974
    17   6 C    3.954 --    16 C    1.642    18 C    1.179    48 H    0.973
    18   6 C    3.908 --    19 C    1.329    33 N    1.220    17 C    1.179
    19   6 C    3.935 --    18 C    1.329    28 C    1.319    20 C    1.023
    20   6 C    3.988 --    21 C    1.404    27 C    1.391    19 C    1.023
                            24 C    0.103
    21   6 C    3.987 --    22 C    1.410    20 C    1.404    49 H    0.972
                            25 C    0.104
    22   6 C    3.988 --    24 C    1.423    21 C    1.410    23 C    1.020
                            27 C    0.103
    23   6 C    3.996 --    22 C    1.020    50 H    0.985    52 H    0.980
                            51 H    0.972
    24   6 C    3.989 --    22 C    1.423    25 C    1.408    53 H    0.972
                            20 C    0.103
    25   6 C    3.988 --    27 C    1.424    24 C    1.408    26 C    1.020
                            21 C    0.104
    26   6 C    3.996 --    25 C    1.020    54 H    0.985    55 H    0.979
                            56 H    0.973
    27   6 C    3.987 --    25 C    1.424    20 C    1.391    57 H    0.971
                            22 C    0.103
    28   6 C    3.912 --    19 C    1.319    32 N    1.238    29 C    1.173
    29   6 C    3.958 --    30 C    1.655    28 C    1.173    58 H    0.973
    30   6 C    3.955 --    29 C    1.655    31 C    1.171    59 H    0.976
    31   6 C    3.918 --     2 C    1.361    32 N    1.229    30 C    1.171
    32   7 N    3.244 --    28 C    1.238    31 C    1.229     1 Cu   0.507
    33   7 N    3.248 --    15 C    1.257    18 C    1.220     1 Cu   0.504
    34   6 C    3.988 --    41 C    1.399    35 C    1.395     8 C    1.023
                            38 C    0.103
    35   6 C    3.987 --    36 C    1.419    34 C    1.395    60 H    0.972
                            39 C    0.103
    36   6 C    3.988 --    35 C    1.419    38 C    1.413    37 C    1.020
                            41 C    0.104
    37   6 C    3.996 --    36 C    1.020    62 H    0.984    61 H    0.981
                            63 H    0.971
    38   6 C    3.989 --    39 C    1.418    36 C    1.413    64 H    0.972
                            34 C    0.103
    39   6 C    3.988 --    38 C    1.418    41 C    1.415    40 C    1.020
                            35 C    0.103
    40   6 C    3.996 --    39 C    1.020    66 H    0.983    67 H    0.983
                            65 H    0.971
    41   6 C    3.987 --    39 C    1.415    34 C    1.399    68 H    0.972
                            36 C    0.104
    42   1 H    1.002 --     2 C    0.971
    43   1 H    0.998 --     4 C    0.976
    44   1 H    1.005 --     5 C    0.973
    45   1 H    1.005 --    10 C    0.973
    46   1 H    1.002 --    11 C    0.974
    47   1 H    1.002 --    16 C    0.974
    48   1 H    1.005 --    17 C    0.973
    49   1 H    1.002 --    21 C    0.972
    50   1 H    1.004 --    23 C    0.985
    51   1 H    1.006 --    23 C    0.972
    52   1 H    1.005 --    23 C    0.980
    53   1 H    1.000 --    24 C    0.972
    54   1 H    1.004 --    26 C    0.985
    55   1 H    1.005 --    26 C    0.979
    56   1 H    1.006 --    26 C    0.973
    57   1 H    1.003 --    27 C    0.971
    58   1 H    1.005 --    29 C    0.973
    59   1 H    0.998 --    30 C    0.976
    60   1 H    1.003 --    35 C    0.972
    61   1 H    1.005 --    37 C    0.981
    62   1 H    1.004 --    37 C    0.984
    63   1 H    1.006 --    37 C    0.971
    64   1 H    1.000 --    38 C    0.972
    65   1 H    1.006 --    40 C    0.971
    66   1 H    1.004 --    40 C    0.983
    67   1 H    1.004 --    40 C    0.983
    68   1 H    1.003 --    41 C    0.972
    69  29 Cu   2.193 --   100 N    0.507    75 N    0.507   101 N    0.504
                            80 N    0.504
    70   6 C    3.929 --    71 C    1.361    99 C    1.361   110 H    0.971
    71   6 C    3.918 --    70 C    1.361    75 N    1.229    72 C    1.171
    72   6 C    3.955 --    73 C    1.655    71 C    1.171   111 H    0.976
    73   6 C    3.958 --    72 C    1.655    74 C    1.173   112 H    0.973
    74   6 C    3.913 --    76 C    1.320    75 N    1.238    73 C    1.173
    75   7 N    3.245 --    74 C    1.238    71 C    1.229    69 Cu   0.507
    76   6 C    3.935 --    77 C    1.329    74 C    1.320   102 C    1.022
    77   6 C    3.908 --    76 C    1.329    80 N    1.220    78 C    1.179
    78   6 C    3.955 --    79 C    1.643    77 C    1.179   113 H    0.973
    79   6 C    3.957 --    78 C    1.643    81 C    1.186   114 H    0.974
    80   7 N    3.249 --    81 C    1.257    77 C    1.220    69 Cu   0.504
    81   6 C    3.898 --    82 C    1.259    80 N    1.257    79 C    1.186
    82   6 C    3.940 --    83 C    1.260    81 C    1.259   152 C    1.186
    83   6 C    3.898 --    82 C    1.260   101 N    1.256    84 C    1.186
    84   6 C    3.957 --    85 C    1.643    83 C    1.186   115 H    0.974
    85   6 C    3.955 --    84 C    1.643    86 C    1.179   116 H    0.973
    86   6 C    3.908 --    87 C    1.329   101 N    1.220    85 C    1.179
    87   6 C    3.935 --    86 C    1.329    96 C    1.320    88 C    1.023
    88   6 C    3.988 --    89 C    1.404    95 C    1.391    87 C    1.023
                            92 C    0.103
    89   6 C    3.987 --    90 C    1.410    88 C    1.404   117 H    0.972
                            93 C    0.104
    90   6 C    3.988 --    92 C    1.423    89 C    1.410    91 C    1.020
                            95 C    0.103
    91   6 C    3.996 --    90 C    1.020   118 H    0.985   120 H    0.980
                           119 H    0.972
    92   6 C    3.989 --    90 C    1.423    93 C    1.408   121 H    0.972
                            88 C    0.103
    93   6 C    3.988 --    95 C    1.424    92 C    1.408    94 C    1.020
                            89 C    0.104
    94   6 C    3.996 --    93 C    1.020   122 H    0.985   123 H    0.979
                           124 H    0.973
    95   6 C    3.987 --    93 C    1.424    88 C    1.391   125 H    0.971
                            90 C    0.103
    96   6 C    3.913 --    87 C    1.320   100 N    1.238    97 C    1.173
    97   6 C    3.958 --    98 C    1.655    96 C    1.173   126 H    0.973
    98   6 C    3.955 --    97 C    1.655    99 C    1.171   127 H    0.976
    99   6 C    3.918 --    70 C    1.361   100 N    1.229    98 C    1.171
   100   7 N    3.245 --    96 C    1.238    99 C    1.229    69 Cu   0.507
   101   7 N    3.249 --    83 C    1.256    86 C    1.220    69 Cu   0.504
   102   6 C    3.988 --   109 C    1.400   103 C    1.396    76 C    1.022
                           106 C    0.103
   103   6 C    3.987 --   104 C    1.419   102 C    1.396   128 H    0.972
                           107 C    0.103
   104   6 C    3.988 --   103 C    1.419   106 C    1.413   105 C    1.020
                           109 C    0.104
   105   6 C    3.996 --   104 C    1.020   130 H    0.984   129 H    0.981
                           131 H    0.971
   106   6 C    3.989 --   107 C    1.418   104 C    1.413   132 H    0.972
                           102 C    0.103
   107   6 C    3.988 --   106 C    1.418   109 C    1.415   108 C    1.020
                           103 C    0.103
   108   6 C    3.996 --   107 C    1.020   134 H    0.983   135 H    0.983
                           133 H    0.971
   109   6 C    3.987 --   107 C    1.415   102 C    1.400   136 H    0.972
                           104 C    0.104
   110   1 H    1.002 --    70 C    0.971
   111   1 H    0.998 --    72 C    0.976
   112   1 H    1.005 --    73 C    0.973
   113   1 H    1.005 --    78 C    0.973
   114   1 H    1.002 --    79 C    0.974
   115   1 H    1.002 --    84 C    0.974
   116   1 H    1.005 --    85 C    0.973
   117   1 H    1.002 --    89 C    0.972
   118   1 H    1.004 --    91 C    0.985
   119   1 H    1.006 --    91 C    0.972
   120   1 H    1.005 --    91 C    0.980
   121   1 H    1.000 --    92 C    0.972
   122   1 H    1.004 --    94 C    0.985
   123   1 H    1.005 --    94 C    0.979
   124   1 H    1.006 --    94 C    0.973
   125   1 H    1.003 --    95 C    0.971
   126   1 H    1.005 --    97 C    0.973
   127   1 H    0.998 --    98 C    0.976
   128   1 H    1.003 --   103 C    0.972
   129   1 H    1.005 --   105 C    0.981
   130   1 H    1.004 --   105 C    0.984
   131   1 H    1.006 --   105 C    0.971
   132   1 H    1.000 --   106 C    0.972
   133   1 H    1.006 --   108 C    0.971
   134   1 H    1.004 --   108 C    0.983
   135   1 H    1.004 --   108 C    0.983
   136   1 H    1.003 --   109 C    0.972
   137   6 C    3.877 --   138 C    2.441    14 C    1.190   140 C    0.187
   138   6 C    3.936 --   137 C    2.441   139 C    1.343
   139   6 C    3.893 --   140 C    2.337   138 C    1.343   142 C    0.182
   140   6 C    3.926 --   139 C    2.337   141 C    1.369   137 C    0.187
   141   6 C    3.925 --   142 C    2.336   140 C    1.369   144 C    0.186
   142   6 C    3.893 --   141 C    2.336   143 C    1.345   139 C    0.182
   143   6 C    3.933 --   144 C    2.437   142 C    1.345
   144   6 C    3.877 --   143 C    2.437   154 C    1.193   141 C    0.186
   145   6 C    3.877 --   146 C    2.441   166 C    1.190   148 C    0.186
   146   6 C    3.933 --   145 C    2.441   147 C    1.341
   147   6 C    3.893 --   148 C    2.340   146 C    1.341   150 C    0.182
   148   6 C    3.924 --   147 C    2.340   149 C    1.365   145 C    0.186
   149   6 C    3.926 --   150 C    2.341   148 C    1.365   152 C    0.187
   150   6 C    3.892 --   149 C    2.341   151 C    1.340   147 C    0.182
   151   6 C    3.936 --   152 C    2.445   150 C    1.340
   152   6 C    3.877 --   151 C    2.445    82 C    1.186   149 C    0.187
   153  29 Cu   2.163 --   159 N    0.498   185 N    0.498   164 N    0.498
                           184 N    0.498
   154   6 C    3.927 --   155 C    1.255   183 C    1.255   144 C    1.193
   155   6 C    3.898 --   159 N    1.260   154 C    1.255   156 C    1.188
   156   6 C    3.955 --   157 C    1.640   155 C    1.188   194 H    0.974
   157   6 C    3.955 --   156 C    1.640   158 C    1.181   195 H    0.973
   158   6 C    3.906 --   160 C    1.324   159 N    1.222   157 C    1.181
   159   7 N    3.241 --   155 C    1.260   158 C    1.222   153 Cu   0.498
   160   6 C    3.930 --   158 C    1.324   161 C    1.324   186 C    1.025
   161   6 C    3.906 --   160 C    1.324   164 N    1.222   162 C    1.181
   162   6 C    3.956 --   163 C    1.641   161 C    1.181   196 H    0.973
   163   6 C    3.955 --   162 C    1.641   165 C    1.188   197 H    0.974
   164   7 N    3.241 --   165 C    1.259   161 C    1.222   153 Cu   0.498
   165   6 C    3.898 --   164 N    1.259   166 C    1.257   163 C    1.188
   166   6 C    3.928 --   165 C    1.257   167 C    1.256   145 C    1.190
   167   6 C    3.898 --   185 N    1.259   166 C    1.256   168 C    1.188
   168   6 C    3.955 --   169 C    1.640   167 C    1.188   198 H    0.974
   169   6 C    3.956 --   168 C    1.640   170 C    1.181   199 H    0.973
   170   6 C    3.906 --   171 C    1.323   185 N    1.222   169 C    1.181
   171   6 C    3.930 --   180 C    1.324   170 C    1.323   172 C    1.025
   172   6 C    3.988 --   173 C    1.400   179 C    1.393   171 C    1.025
                           176 C    0.103
   173   6 C    3.987 --   174 C    1.414   172 C    1.400   200 H    0.972
                           177 C    0.104
   174   6 C    3.988 --   176 C    1.419   173 C    1.414   175 C    1.020
                           179 C    0.103
   175   6 C    3.996 --   174 C    1.020   201 H    0.984   203 H    0.982
                           202 H    0.971
   176   6 C    3.988 --   174 C    1.419   177 C    1.411   204 H    0.972
                           172 C    0.103
   177   6 C    3.988 --   179 C    1.421   176 C    1.411   178 C    1.020
                           173 C    0.104
   178   6 C    3.996 --   177 C    1.020   205 H    0.984   206 H    0.981
                           207 H    0.971
   179   6 C    3.987 --   177 C    1.421   172 C    1.393   208 H    0.972
                           174 C    0.103
   180   6 C    3.906 --   171 C    1.324   184 N    1.221   181 C    1.181
   181   6 C    3.955 --   182 C    1.640   180 C    1.181   209 H    0.973
   182   6 C    3.955 --   181 C    1.640   183 C    1.188   210 H    0.974
   183   6 C    3.898 --   184 N    1.260   154 C    1.255   182 C    1.188
   184   7 N    3.241 --   183 C    1.260   180 C    1.221   153 Cu   0.498
   185   7 N    3.241 --   167 C    1.259   170 C    1.222   153 Cu   0.498
   186   6 C    3.988 --   187 C    1.398   193 C    1.395   160 C    1.025
                           190 C    0.103
   187   6 C    3.987 --   188 C    1.415   186 C    1.398   211 H    0.972
                           191 C    0.104
   188   6 C    3.988 --   190 C    1.417   187 C    1.415   189 C    1.020
                           193 C    0.103
   189   6 C    3.996 --   188 C    1.020   212 H    0.983   214 H    0.982
                           213 H    0.971
   190   6 C    3.988 --   188 C    1.417   191 C    1.413   215 H    0.972
                           186 C    0.103
   191   6 C    3.988 --   193 C    1.419   190 C    1.413   192 C    1.020
                           187 C    0.104
   192   6 C    3.995 --   191 C    1.020   217 H    0.984   216 H    0.982
                           218 H    0.971
   193   6 C    3.987 --   191 C    1.419   186 C    1.395   219 H    0.972
                           188 C    0.103
   194   1 H    1.002 --   156 C    0.974
   195   1 H    1.005 --   157 C    0.973
   196   1 H    1.005 --   162 C    0.973
   197   1 H    1.002 --   163 C    0.974
   198   1 H    1.002 --   168 C    0.974
   199   1 H    1.005 --   169 C    0.973
   200   1 H    1.003 --   173 C    0.972
   201   1 H    1.004 --   175 C    0.984
   202   1 H    1.006 --   175 C    0.971
   203   1 H    1.004 --   175 C    0.982
   204   1 H    1.000 --   176 C    0.972
   205   1 H    1.004 --   178 C    0.984
   206   1 H    1.005 --   178 C    0.981
   207   1 H    1.006 --   178 C    0.971
   208   1 H    1.003 --   179 C    0.972
   209   1 H    1.005 --   181 C    0.973
   210   1 H    1.002 --   182 C    0.974
   211   1 H    1.003 --   187 C    0.972
   212   1 H    1.004 --   189 C    0.983
   213   1 H    1.006 --   189 C    0.971
   214   1 H    1.004 --   189 C    0.982
   215   1 H    1.000 --   190 C    0.972
   216   1 H    1.004 --   192 C    0.982
   217   1 H    1.004 --   192 C    0.984
   218   1 H    1.006 --   192 C    0.971
   219   1 H    1.003 --   193 C    0.972
 ---------------------------------------------------------------------------

           -------------------------------------------------
          | TOTAL ENERGY             -356.806362136542 Eh   |
          | GRADIENT NORM               0.000719467914 Eh/α |
          | HOMO-LUMO GAP               0.000009879083 eV   |
           -------------------------------------------------

 * finished run on 2022/07/30 at 07:39:05.649
