   * xtb version 6.5.1 (b24c23e) compiled by 'conda@728c89f4b128' on 2022-07-12
          program call               : xtb Ni_BSA_C6_3.xyz --gfn 1 --opt -T 48

   ID    Z sym.   atoms
    1   28 Ni     1, 65, 141
    2    6 C      2-6, 8-12, 17-21, 23-28, 30-34, 39-44, 66-70, 72-76, 81-85,
                  87-92, 94-98, 103-108, 129-140, 142-146, 148-152, 157-161,
                  163-168, 170-174, 179-184
    3    7 N      7, 22, 29, 45, 71, 86, 93, 109, 147, 162, 169, 185
    4   16 S      13, 35, 77, 99, 153, 175
    5    8 O      14-16, 36-38, 78-80, 100-102, 154-156, 176-178
    6    1 H      46-64, 110-128, 186-203

          :  Hamiltonian                  GFN1-xTB          :
 * total energy  :  -414.2754810 Eh     change       -0.1403481E-07 Eh
 * total energy  :  -414.6156234 Eh     change       -0.3401424E+00 Eh
 * total energy  :  -414.7693307 Eh     change       -0.1537073E+00 Eh
 * total energy  :  -414.8683357 Eh     change       -0.9900495E-01 Eh
 * total energy  :  -414.9440646 Eh     change       -0.7572895E-01 Eh
 * total energy  :  -414.9966056 Eh     change       -0.5254099E-01 Eh
 * total energy  :  -415.0267434 Eh     change       -0.3013775E-01 Eh
 * total energy  :  -415.0493306 Eh     change       -0.2258724E-01 Eh
 * total energy  :  -415.0653507 Eh     change       -0.1602006E-01 Eh
 * total energy  :  -415.0754842 Eh     change       -0.1013349E-01 Eh
 * total energy  :  -415.1513558 Eh     change       -0.1816176E-04 Eh
 * total energy  :  -415.1513793 Eh     change       -0.2356209E-04 Eh
 * total energy  :  -415.1514037 Eh     change       -0.2439573E-04 Eh
 * total energy  :  -415.1514217 Eh     change       -0.1800132E-04 Eh
 * total energy  :  -415.1514324 Eh     change       -0.1068011E-04 Eh
 * total energy  :  -415.1514464 Eh     change       -0.1399939E-04 Eh
 * total energy  :  -415.1514525 Eh     change       -0.6088169E-05 Eh
 * total energy  :  -415.1514633 Eh     change       -0.1081250E-04 Eh
 * total energy  :  -415.1514671 Eh     change       -0.3768932E-05 Eh
   *** GEOMETRY OPTIMIZATION CONVERGED AFTER 68 ITERATIONS ***

 final structure:
================
203
 xtb: 6.5.1 (b24c23e)
Ni          31.47269927659096        0.07576084048048        0.02263474653096
C           28.08396423766654        0.18999416450697        0.07501208384209
C           28.73458354531183       -0.26463714689327        1.20324705143534
C           28.05939577282363       -0.72575342922530        2.37802710214539
C           29.01670902722642       -0.99272204333223        3.29673513862173
C           30.27592564871374       -0.67753061769990        2.68704084682672
N           30.09451497725152       -0.27283914981596        1.38852169916483
C           31.49450365482105       -0.71641138144913        3.35206687563181
C           31.51215267332765       -1.07440836707316        4.79006277430076
C           30.84829036166456       -0.27750568983767        5.72583115692202
C           30.87201402515806       -0.60620900889660        7.07128755719223
C           31.55979916743001       -1.74208758427988        7.46654165108447
S           31.60404543901309       -2.15730176313959        9.16930913147950
O           31.39418147874478       -0.99643318779917        9.98341219553356
O           30.25796379523729       -3.06413164763736        9.22501327662012
O           32.72647696690972       -3.00050159525483        9.45782640476614
C           32.22724290328186       -2.55201374185279        6.56217920377728
C           32.20193254026966       -2.21072161021215        5.22007498922088
C           32.70120261236451       -0.42703198268941        2.72779261123405
C           33.96001161363446       -0.37789105229513        3.40814253682973
C           34.90624490121922       -0.15897711437042        2.46381857017184
N           32.87146719123662       -0.19523339559682        1.38246207031301
C           34.22363880610590       -0.07084185539302        1.21229993770422
C           34.88338476098836        0.02324751255715       -0.01574068251264
C           34.20018194550652        0.12309033680073       -1.23048382207779
C           34.85657850070859        0.16619547645092       -2.49822239438833
C           33.89453189989443        0.38349001438694       -3.42695139994386
C           32.65353890238151        0.48505285309707       -2.72002089670729
N           32.84851312905240        0.27906441374944       -1.37373237942855
C           31.44363872713780        0.80958356659459       -3.32026902737565
C           31.43428137757582        1.12879924406326       -4.76725812186911
C           30.69267440136066        0.34906907474541       -5.65795887113540
C           30.68436862441401        0.64375791258415       -7.01158763271448
C           31.42163491929472        1.72712784272741       -7.46070575404296
S           31.40679255799991        2.11518360571846       -9.17064602830690
O           31.68576433203169        3.50528854967791       -9.38556247469561
O           32.72326771714865        1.27611706189522       -9.61956223054746
O           30.25853106529402        1.54034102569053       -9.80499491084148
C           32.16107804384293        2.52321133741261       -6.60087472581902
C           32.16618928213517        2.21661027622461       -5.25032420241298
C           30.24543513844374        0.85641982096377       -2.61911779104617
C           28.99160332794418        1.24592560482862       -3.19620794419565
C           28.04988052790536        1.07333609298790       -2.23973798761495
C           28.72935965586111        0.58785137748020       -1.07722110122646
N           30.07965823760101        0.49388710030502       -1.30630920507324
H           27.00120797567092        0.23045194329846        0.09247096867613
H           26.98963987326503       -0.82683659160553        2.46783037205002
H           28.89483331283466       -1.36965913111717        4.29917658839041
H           30.32681905492173        0.61377183231087        5.39696005390324
H           30.37195631503807        0.01087600579688        7.80718441656687
H           30.10105285677950       -3.37470122529686       10.12505881394901
H           32.75959358439308       -3.42961674863374        6.90681474434875
H           32.71090250191583       -2.83435013271023        4.49443146000385
H           34.09167668604929       -0.49008204688517        4.47186847271829
H           35.97321531849206       -0.06751323115959        2.58699000838057
H           35.91787381187513        0.04470881415152       -2.64279685430426
H           34.00522663397857        0.46526874411947       -4.49583113175937
H           30.13118664038747       -0.50041223724751       -5.28701749649012
H           30.11332429301412        0.04620701177962       -7.71099317460473
H           33.01376473477499        1.55706464736914      -10.49581876051036
H           32.71575091758633        3.37022088195052       -6.98466464224403
H           32.72857400297239        2.83302272063901       -4.55876115503014
H           28.86288652579486        1.60748991734388       -4.20341277488268
H           26.98785183259780        1.25054053941759       -2.29718799490844
Ni          63.47056176654010        0.06154708837275       -0.00042894497312
C           66.86005252382836        0.19152133193146       -0.01263361281433
C           66.20731714630834        0.19440663931339       -1.22771540481489
C           66.88153058888975        0.21285925166082       -2.49012849292050
C           65.92291687267750        0.30492997645747       -3.44096718867396
C           64.66382090999944        0.35863334275457       -2.75649746885602
N           64.84685820189233        0.24901381193295       -1.40106455593438
C           63.44304022030221        0.55464292689393       -3.38880820213383
C           63.42481855259758        0.75776765002252       -4.85685408957057
C           64.07131009483844        1.85770135370690       -5.42572637613830
C           64.04866686618502        2.05423887471212       -6.79675488213046
C           63.37944682427742        1.13584614210459       -7.58929944984068
S           63.33827197930628        1.38401136806871       -9.32439571132198
O           63.53358954442418        2.76694098424171       -9.64609242166940
O           64.69403396460889        0.57672539654788       -9.70891049210147
O           62.22606083895241        0.69628447541204       -9.91130825696121
C           62.72901062508477        0.03577105967870       -7.05440201753267
C           62.75307102463399       -0.14782954512522       -5.68174577007958
C           62.23555319793692        0.57494227121659       -2.70284604105436
C           60.97304457331703        0.85004827266331       -3.31976562884219
C           60.02841882252214        0.69741182026132       -2.36122381073837
N           62.06847077561161        0.29801906406458       -1.36565816777940
C           60.71573259518874        0.33587010380992       -1.16229728770231
C           60.05945021165939       -0.01526914983761        0.01970599759152
C           60.74393935262938       -0.34732198976502        1.19118465787209
C           60.08808187314715       -0.75669739018930        2.39216240542504
C           61.05149345451839       -0.89051165275481        3.33492570953745
C           62.29290110234555       -0.54964952003084        2.70802806366603
N           62.09638897141068       -0.25688620867853        1.37808886076165
C           63.50581407225598       -0.47754273263249        3.38084083633150
C           63.52002172758436       -0.71214424755981        4.84412493813709
C           64.25063838241790       -1.77484806373943        5.38097108041379
C           64.26629145543230       -1.99767882520954        6.74816809846227
C           63.54722267354479       -1.14446483087924        7.56911261427498
S           63.57275802110146       -1.41130229451581        9.30210687886943
O           63.30918755765446       -0.19508424667493       10.01475826613797
O           62.24911287523455       -2.34499385285783        9.42273061858038
O           64.71766404898013       -2.18829298403726        9.67147163682723
C           62.81834136663856       -0.07850074552408        7.06685370323992
C           62.80584816772949        0.13221334833535        5.69804154452457
C           64.70440566495695       -0.18762455757051        2.74162130672850
C           65.96119988375996       -0.04839237053216        3.41838530627055
C           66.90105787597885        0.14183922816199        2.46355914621245
C           66.21751495010373        0.12786996578231        1.20606232997778
N           64.86698745752071       -0.03889484058438        1.38742313340139
H           67.94278994219687        0.23613263747502       -0.01585121990536
H           67.95155501174170        0.15954906946120       -2.61202951823191
H           66.04359304778957        0.33316106866871       -4.51169411632270
H           64.57864806734480        2.57065473281812       -4.78636520638205
H           64.53552255638998        2.90980251964763       -7.24771270786879
H           64.83673546247820        0.59776747218741      -10.66301575538176
H           62.21067176252057       -0.65901963126388       -7.70321033376462
H           62.25746260919374       -1.00584121008192       -5.24278713991471
H           60.83796960582726        1.13012169519803       -4.35160646496956
H           58.95985579637358        0.81280860407844       -2.44353026449270
H           59.02619743844336       -0.91694485665723        2.48566464936480
H           60.94174096794397       -1.19565920348843        4.36267976051125
H           64.79820384916165       -2.43648680683466        4.71999245361577
H           64.82938633539912       -2.81800451707933        7.17515744255371
H           61.95062242036478       -2.38324073381333       10.33954119717591
H           62.27780940927268        0.57616943903612        7.73889398878531
H           62.25181215356234        0.96718225903499        5.28530124511335
H           66.09297078703452       -0.08805113839266        4.48740512436821
H           67.96420977414166        0.27923679438090        2.57945198872230
C           40.08531879385338       -0.01463786815173       -0.05291683240091
C           38.85782832210126       -0.01046874965857       -0.04733348473638
C           37.51215088080765        0.00070040605929       -0.04005913620781
C           36.28923147956529        0.00952496583355       -0.02935056307133
C           41.43094649679391       -0.02196414257971       -0.05213201278457
C           42.65408137679248       -0.02474079414332       -0.04991087185238
C           56.08424375895876       -0.06486698411453        0.02643509559129
C           54.85701163002500       -0.07312465653274        0.02126058255822
C           53.51097386868187       -0.07439815391529        0.01231458574201
C           52.28809068152844       -0.06879315505669        0.00771154362966
C           57.43038018509903       -0.05426336328973        0.02544464900148
C           58.65304110238616       -0.03869647819598        0.02734645130114
Ni          47.47095515355110       -0.04309915767049       -0.02712736545559
C           44.05941058883777       -0.02948479523002       -0.04484628117379
C           44.73298474577452        0.91846351234616        0.73076893983856
C           44.06895996517922        1.87735300186128        1.55486483413324
C           45.02490200114926        2.71530451619060        2.02434845070032
C           46.26974915019289        2.26940779630313        1.47638119493975
N           46.08394397189734        1.13406877875488        0.72181685753494
C           47.47450574367188        2.94387761135182        1.62809904293189
C           47.47486280748768        4.24066616666597        2.34479455530122
C           48.22285678002064        4.39916463334637        3.51394453080068
C           48.22364933555960        5.60853616715189        4.18949050377423
C           47.47307559693022        6.65525202554209        3.67965325757039
S           47.47850531494580        8.19366611626907        4.52158648119121
O           47.19981946163769        9.27442415649198        3.62142370536527
O           46.15820833795288        7.96994204573972        5.44044700056015
O           48.62281893082083        8.29128823506890        5.37707727493047
C           46.72724885622271        6.53070392887266        2.51862113171051
C           46.72881601720479        5.31537479306639        1.85437320450251
C           48.67841360976191        2.45449158280580        1.13778640887579
C           49.92540370470970        3.15168769282397        1.22667404288669
C           50.87964545038510        2.30514088484331        0.76954128190975
N           48.86124216576226        1.21138315641155        0.57736810415785
C           50.21238608535541        1.09973905552066        0.39341688153152
C           50.88222218541585       -0.06141692383805       -0.00158566418035
C           50.20554386167519       -1.21488426272513       -0.40739532916495
C           50.86524152522702       -2.42661858070396       -0.77632565604375
C           49.90917715542049       -3.26068144472484       -1.25227176407501
C           48.66882433501841       -2.54976965931411       -1.18105754475597
N           48.85630846980710       -1.31096163715716       -0.61291027709156
C           47.46774627314199       -3.02420923735176       -1.69276424186864
C           47.46864250185686       -4.31385149206840       -2.42208964791354
C           48.23482029965063       -4.46472726868604       -3.58049981731768
C           48.23729416889022       -5.66583882398769       -4.27041272787884
C           47.46976228006950       -6.71220213450967       -3.78568972997584
S           47.47651849318446       -8.23956500877124       -4.64738127769313
O           47.16225992807571       -9.32854746262944       -3.76893690134307
O           46.18248438773470       -7.98638409488649       -5.59568770750986
O           48.64027196165265       -8.34099870913930       -5.47603218180230
C           46.70599285384976       -6.59548689225036       -2.63559085964874
C           46.70639451662131       -5.38822193398868       -1.95663891390542
C           46.26707325301505       -2.34011585023531       -1.55271151107635
C           45.02460690249912       -2.77324083980132       -2.11608255972206
C           44.07019370700335       -1.93096363117461       -1.65113532862496
C           44.73315816699236       -0.98109265906518       -0.81588478686230
N           46.08218329691373       -1.20705665737855       -0.79435245427506
H           43.00675793463385        1.89656571581121        1.73753461573871
H           44.90764532998050        3.55918657945420        2.68438011402786
H           48.79512415583812        3.56420454181348        3.90101425525704
H           48.79912631752468        5.74234173079685        5.09682328193471
H           45.85636113345640        8.81346050758110        5.79903077313409
H           46.16236290565757        7.37390477132865        2.14134890415546
H           46.16123365045006        5.19968307192848        0.93843094659408
H           50.04521249931327        4.15916067542924        1.59012684913748
H           51.94255600381772        2.46657316013798        0.69095797178690
H           51.92484696953661       -2.60024910856336       -0.68098064750396
H           50.02346058935714       -4.26832375071963       -1.61705988634345
H           48.82013966373876       -3.62987730710671       -3.94774809972114
H           48.82675700445684       -5.79360497200421       -5.16957472366051
H           45.88301039563168       -8.81991278887329       -5.97871085493416
H           46.12827761269346       -7.43849392594307       -2.27782186738605
H           46.12505066997237       -5.27911648501766       -1.04855844118949
H           44.90757524162897       -3.61260243311724       -2.78188417019301
H           43.00976183058161       -1.94115105796796       -1.84456610667548

          :  Hamiltonian                  GFN1-xTB          :
         :: total energy            -415.151467082834 Eh    ::
         :: gradient norm              0.000933414384 Eh/a0 ::
         :: HOMO-LUMO gap              1.220212615278 eV    ::
         :: SCC energy              -420.801459325202 Eh    ::
         :: repulsion energy           5.836897061013 Eh    ::

    * Orbital Energies and Occupations

         #    Occupation            Energy/Eh            Energy/eV
      -------------------------------------------------------------
         1        2.0000           -1.0379218             -28.2433
       ...           ...                  ...                  ...
       349        2.0000           -0.4160223             -11.3205
       350        2.0000           -0.4159188             -11.3177
       351        2.0000           -0.4158272             -11.3152
       352        2.0000           -0.4157837             -11.3140
       353        2.0000           -0.4156647             -11.3108
       354        2.0000           -0.4147627             -11.2863
       355        2.0000           -0.4147022             -11.2846
       356        2.0000           -0.4145931             -11.2817
       357        2.0000           -0.4136966             -11.2573
       358        2.0000           -0.4135870             -11.2543
       359        2.0000           -0.4098832             -11.1535
       360        2.0000           -0.4068217             -11.0702
       361        2.0000           -0.4035428             -10.9810 (HOMO)
       362                         -0.3587008              -9.7607 (LUMO)
       363                         -0.3520128              -9.5788
       364                         -0.3512815              -9.5589
       365                         -0.3512728              -9.5586
       366                         -0.3502187              -9.5299
       367                         -0.3491309              -9.5003
       368                         -0.3471893              -9.4475
       369                         -0.3463473              -9.4246
       370                         -0.3456022              -9.4043
       371                         -0.3280648              -8.9271
       372                         -0.3216138              -8.7516
       ...                                ...                  ...
       745                          1.5633889              42.5420
      -------------------------------------------------------------
                  HL-Gap            0.0448420 Eh            1.2202 eV

Wiberg/Mayer (AO) data.
largest (>0.10) Wiberg bond orders for each atom

     #   Z sym  total        # sym  WBO       # sym  WBO       # sym  WBO
 ---------------------------------------------------------------------------
     1  28 Ni   3.015 --    45 N    0.664     7 N    0.664    22 N    0.661
                            29 N    0.660
     2   6 C    3.937 --    44 C    1.365     3 C    1.364    46 H    0.970
     3   6 C    3.921 --     2 C    1.364     7 N    1.213     4 C    1.174
     4   6 C    3.960 --     5 C    1.651     3 C    1.174    47 H    0.975
     5   6 C    3.963 --     4 C    1.651     6 C    1.175    48 H    0.973
     6   6 C    3.921 --     8 C    1.323     7 N    1.221     5 C    1.175
     7   7 N    3.402 --     6 C    1.221     3 C    1.213     1 Ni   0.664
     8   6 C    3.938 --    19 C    1.325     6 C    1.323     9 C    1.028
     9   6 C    3.986 --    10 C    1.391    18 C    1.391     8 C    1.028
    10   6 C    3.987 --    11 C    1.450     9 C    1.391    49 H    0.971
                            17 C    0.106
    11   6 C    3.989 --    10 C    1.450    12 C    1.407    50 H    0.967
                            18 C    0.106
    12   6 C    3.931 --    11 C    1.407    17 C    1.407    13 S    0.754
    13  16 S    5.265 --    16 O    1.720    14 O    1.719    15 O    1.013
                            12 C    0.754
    14   8 O    2.078 --    13 S    1.719    16 O    0.139
    15   8 O    2.087 --    13 S    1.013    51 H    0.827
    16   8 O    2.079 --    13 S    1.720    14 O    0.139
    17   6 C    3.989 --    18 C    1.450    12 C    1.407    52 H    0.967
                            10 C    0.106
    18   6 C    3.987 --    17 C    1.450     9 C    1.391    53 H    0.971
                            11 C    0.106
    19   6 C    3.915 --     8 C    1.325    22 N    1.209    20 C    1.183
    20   6 C    3.959 --    21 C    1.637    19 C    1.183    54 H    0.973
    21   6 C    3.961 --    20 C    1.637    23 C    1.190    55 H    0.973
    22   7 N    3.406 --    23 C    1.235    19 C    1.209     1 Ni   0.661
    23   6 C    3.903 --    24 C    1.266    22 N    1.235    21 C    1.190
    24   6 C    3.946 --    23 C    1.266    25 C    1.265   132 C    1.180
    25   6 C    3.903 --    24 C    1.265    29 N    1.236    26 C    1.191
    26   6 C    3.961 --    27 C    1.637    25 C    1.191    56 H    0.973
    27   6 C    3.959 --    26 C    1.637    28 C    1.183    57 H    0.973
    28   6 C    3.915 --    30 C    1.326    29 N    1.208    27 C    1.183
    29   7 N    3.406 --    25 C    1.236    28 C    1.208     1 Ni   0.660
    30   6 C    3.938 --    28 C    1.326    41 C    1.323    31 C    1.029
    31   6 C    3.986 --    32 C    1.392    40 C    1.390    30 C    1.029
    32   6 C    3.987 --    33 C    1.449    31 C    1.392    58 H    0.971
                            39 C    0.106
    33   6 C    3.989 --    32 C    1.449    34 C    1.408    59 H    0.967
                            40 C    0.106
    34   6 C    3.931 --    33 C    1.408    39 C    1.407    35 S    0.754
    35  16 S    5.266 --    38 O    1.726    36 O    1.714    37 O    1.014
                            34 C    0.754
    36   8 O    2.073 --    35 S    1.714    38 O    0.139
    37   8 O    2.088 --    35 S    1.014    60 H    0.828
    38   8 O    2.085 --    35 S    1.726    36 O    0.139
    39   6 C    3.989 --    40 C    1.451    34 C    1.407    61 H    0.967
                            32 C    0.106
    40   6 C    3.987 --    39 C    1.451    31 C    1.390    62 H    0.971
                            33 C    0.106
    41   6 C    3.921 --    30 C    1.323    45 N    1.222    42 C    1.175
    42   6 C    3.963 --    43 C    1.651    41 C    1.175    63 H    0.973
    43   6 C    3.960 --    42 C    1.651    44 C    1.173    64 H    0.974
    44   6 C    3.921 --     2 C    1.365    45 N    1.212    43 C    1.173
    45   7 N    3.402 --    41 C    1.222    44 C    1.212     1 Ni   0.664
    46   1 H    1.000 --     2 C    0.970
    47   1 H    0.997 --     4 C    0.975
    48   1 H    1.003 --     5 C    0.973
    49   1 H    1.003 --    10 C    0.971
    50   1 H    0.999 --    11 C    0.967
    51   1 H    0.854 --    15 O    0.827
    52   1 H    0.999 --    17 C    0.967
    53   1 H    1.003 --    18 C    0.971
    54   1 H    1.003 --    20 C    0.973
    55   1 H    1.001 --    21 C    0.973
    56   1 H    1.001 --    26 C    0.973
    57   1 H    1.003 --    27 C    0.973
    58   1 H    1.003 --    32 C    0.971
    59   1 H    0.999 --    33 C    0.967
    60   1 H    0.854 --    37 O    0.828
    61   1 H    0.999 --    39 C    0.967
    62   1 H    1.003 --    40 C    0.971
    63   1 H    1.003 --    42 C    0.973
    64   1 H    0.997 --    43 C    0.974
    65  28 Ni   3.013 --   109 N    0.664    71 N    0.664    86 N    0.661
                            93 N    0.660
    66   6 C    3.937 --   108 C    1.365    67 C    1.364   110 H    0.970
    67   6 C    3.921 --    66 C    1.364    71 N    1.213    68 C    1.174
    68   6 C    3.960 --    69 C    1.651    67 C    1.174   111 H    0.975
    69   6 C    3.963 --    68 C    1.651    70 C    1.175   112 H    0.973
    70   6 C    3.921 --    72 C    1.323    71 N    1.222    69 C    1.175
    71   7 N    3.403 --    70 C    1.222    67 C    1.213    65 Ni   0.664
    72   6 C    3.939 --    83 C    1.326    70 C    1.323    73 C    1.028
    73   6 C    3.986 --    74 C    1.391    82 C    1.391    72 C    1.028
    74   6 C    3.987 --    75 C    1.450    73 C    1.391   113 H    0.971
                            81 C    0.106
    75   6 C    3.989 --    74 C    1.450    76 C    1.408   114 H    0.967
                            82 C    0.106
    76   6 C    3.931 --    75 C    1.408    81 C    1.407    77 S    0.754
    77  16 S    5.265 --    78 O    1.720    80 O    1.719    79 O    1.013
                            76 C    0.754
    78   8 O    2.078 --    77 S    1.720    80 O    0.139
    79   8 O    2.087 --    77 S    1.013   115 H    0.827
    80   8 O    2.078 --    77 S    1.719    78 O    0.139
    81   6 C    3.989 --    82 C    1.450    76 C    1.407   116 H    0.967
                            74 C    0.106
    82   6 C    3.987 --    81 C    1.450    73 C    1.391   117 H    0.971
                            75 C    0.106
    83   6 C    3.915 --    72 C    1.326    86 N    1.209    84 C    1.182
    84   6 C    3.959 --    85 C    1.638    83 C    1.182   118 H    0.973
    85   6 C    3.961 --    84 C    1.638    87 C    1.190   119 H    0.973
    86   7 N    3.406 --    87 C    1.235    83 C    1.209    65 Ni   0.661
    87   6 C    3.903 --    88 C    1.267    86 N    1.235    85 C    1.190
    88   6 C    3.947 --    87 C    1.267    89 C    1.267   140 C    1.177
    89   6 C    3.903 --    88 C    1.267    93 N    1.236    90 C    1.190
    90   6 C    3.961 --    91 C    1.637    89 C    1.190   120 H    0.973
    91   6 C    3.959 --    90 C    1.637    92 C    1.182   121 H    0.973
    92   6 C    3.916 --    94 C    1.326    93 N    1.209    91 C    1.182
    93   7 N    3.406 --    89 C    1.236    92 C    1.209    65 Ni   0.660
    94   6 C    3.939 --    92 C    1.326   105 C    1.323    95 C    1.028
    95   6 C    3.986 --    96 C    1.392   104 C    1.390    94 C    1.028
    96   6 C    3.987 --    97 C    1.449    95 C    1.392   122 H    0.971
                           103 C    0.106
    97   6 C    3.989 --    96 C    1.449    98 C    1.408   123 H    0.967
                           104 C    0.106
    98   6 C    3.931 --    97 C    1.408   103 C    1.407    99 S    0.754
    99  16 S    5.267 --   102 O    1.727   100 O    1.714   101 O    1.014
                            98 C    0.754
   100   8 O    2.073 --    99 S    1.714   102 O    0.139
   101   8 O    2.088 --    99 S    1.014   124 H    0.828
   102   8 O    2.085 --    99 S    1.727   100 O    0.139
   103   6 C    3.989 --   104 C    1.451    98 C    1.407   125 H    0.967
                            96 C    0.106
   104   6 C    3.987 --   103 C    1.451    95 C    1.390   126 H    0.971
                            97 C    0.106
   105   6 C    3.921 --    94 C    1.323   109 N    1.222   106 C    1.175
   106   6 C    3.963 --   107 C    1.652   105 C    1.175   127 H    0.973
   107   6 C    3.960 --   106 C    1.652   108 C    1.173   128 H    0.974
   108   6 C    3.921 --    66 C    1.365   109 N    1.212   107 C    1.173
   109   7 N    3.403 --   105 C    1.222   108 C    1.212    65 Ni   0.664
   110   1 H    1.000 --    66 C    0.970
   111   1 H    0.997 --    68 C    0.975
   112   1 H    1.003 --    69 C    0.973
   113   1 H    1.003 --    74 C    0.971
   114   1 H    0.999 --    75 C    0.967
   115   1 H    0.854 --    79 O    0.827
   116   1 H    0.999 --    81 C    0.967
   117   1 H    1.003 --    82 C    0.971
   118   1 H    1.003 --    84 C    0.973
   119   1 H    1.001 --    85 C    0.973
   120   1 H    1.001 --    90 C    0.973
   121   1 H    1.003 --    91 C    0.973
   122   1 H    1.003 --    96 C    0.971
   123   1 H    0.999 --    97 C    0.967
   124   1 H    0.854 --   101 O    0.828
   125   1 H    0.999 --   103 C    0.967
   126   1 H    1.003 --   104 C    0.971
   127   1 H    1.003 --   106 C    0.973
   128   1 H    0.997 --   107 C    0.974
   129   6 C    3.926 --   130 C    2.379   133 C    1.327   132 C    0.191
   130   6 C    3.925 --   129 C    2.379   131 C    1.327   134 C    0.191
   131   6 C    3.938 --   132 C    2.461   130 C    1.327
   132   6 C    3.890 --   131 C    2.461    24 C    1.180   129 C    0.191
   133   6 C    3.936 --   134 C    2.459   129 C    1.327
   134   6 C    3.891 --   133 C    2.459   142 C    1.182   130 C    0.191
   135   6 C    3.925 --   136 C    2.381   139 C    1.324   138 C    0.190
   136   6 C    3.926 --   135 C    2.381   137 C    1.325   140 C    0.190
   137   6 C    3.936 --   138 C    2.462   136 C    1.325
   138   6 C    3.891 --   137 C    2.462   164 C    1.180   135 C    0.190
   139   6 C    3.938 --   140 C    2.464   135 C    1.324
   140   6 C    3.890 --   139 C    2.464    88 C    1.177   136 C    0.190
   141  28 Ni   3.010 --   169 N    0.661   162 N    0.661   147 N    0.661
                           185 N    0.661
   142   6 C    3.938 --   143 C    1.263   184 C    1.263   134 C    1.182
   143   6 C    3.903 --   142 C    1.263   147 N    1.236   144 C    1.191
   144   6 C    3.960 --   145 C    1.635   143 C    1.191   186 H    0.973
   145   6 C    3.960 --   144 C    1.635   146 C    1.184   187 H    0.973
   146   6 C    3.914 --   148 C    1.324   147 N    1.207   145 C    1.184
   147   7 N    3.400 --   143 C    1.236   146 C    1.207   141 Ni   0.661
   148   6 C    3.934 --   146 C    1.324   159 C    1.324   149 C    1.029
   149   6 C    3.986 --   150 C    1.391   158 C    1.390   148 C    1.029
   150   6 C    3.987 --   151 C    1.449   149 C    1.391   188 H    0.971
                           157 C    0.106
   151   6 C    3.989 --   150 C    1.449   152 C    1.408   189 H    0.966
                           158 C    0.106
   152   6 C    3.931 --   151 C    1.408   157 C    1.407   153 S    0.754
   153  16 S    5.267 --   156 O    1.727   154 O    1.714   155 O    1.014
                           152 C    0.754
   154   8 O    2.073 --   153 S    1.714   156 O    0.139
   155   8 O    2.089 --   153 S    1.014   190 H    0.827
   156   8 O    2.085 --   153 S    1.727   154 O    0.139
   157   6 C    3.989 --   158 C    1.451   152 C    1.407   191 H    0.967
                           150 C    0.106
   158   6 C    3.987 --   157 C    1.451   149 C    1.390   192 H    0.971
                           151 C    0.106
   159   6 C    3.914 --   148 C    1.324   162 N    1.207   160 C    1.184
   160   6 C    3.960 --   161 C    1.636   159 C    1.184   193 H    0.973
   161   6 C    3.960 --   160 C    1.636   163 C    1.191   194 H    0.973
   162   7 N    3.400 --   163 C    1.236   159 C    1.207   141 Ni   0.661
   163   6 C    3.903 --   164 C    1.265   162 N    1.236   161 C    1.191
   164   6 C    3.938 --   163 C    1.265   165 C    1.265   138 C    1.180
   165   6 C    3.903 --   164 C    1.265   169 N    1.236   166 C    1.191
   166   6 C    3.960 --   167 C    1.635   165 C    1.191   195 H    0.973
   167   6 C    3.960 --   166 C    1.635   168 C    1.184   196 H    0.973
   168   6 C    3.914 --   170 C    1.324   169 N    1.207   167 C    1.184
   169   7 N    3.400 --   165 C    1.236   168 C    1.207   141 Ni   0.661
   170   6 C    3.934 --   181 C    1.324   168 C    1.324   171 C    1.029
   171   6 C    3.986 --   172 C    1.391   180 C    1.390   170 C    1.029
   172   6 C    3.987 --   173 C    1.449   171 C    1.391   197 H    0.971
                           179 C    0.106
   173   6 C    3.989 --   172 C    1.449   174 C    1.408   198 H    0.966
                           180 C    0.106
   174   6 C    3.931 --   173 C    1.408   179 C    1.407   175 S    0.754
   175  16 S    5.267 --   178 O    1.727   176 O    1.714   177 O    1.014
                           174 C    0.754
   176   8 O    2.073 --   175 S    1.714   178 O    0.139
   177   8 O    2.088 --   175 S    1.014   199 H    0.828
   178   8 O    2.085 --   175 S    1.727   176 O    0.139
   179   6 C    3.989 --   180 C    1.450   174 C    1.407   200 H    0.967
                           172 C    0.106
   180   6 C    3.987 --   179 C    1.450   171 C    1.390   201 H    0.971
                           173 C    0.106
   181   6 C    3.914 --   170 C    1.324   185 N    1.206   182 C    1.184
   182   6 C    3.960 --   183 C    1.635   181 C    1.184   202 H    0.973
   183   6 C    3.960 --   182 C    1.635   184 C    1.192   203 H    0.973
   184   6 C    3.903 --   142 C    1.263   185 N    1.237   183 C    1.192
   185   7 N    3.400 --   184 C    1.237   181 C    1.206   141 Ni   0.661
   186   1 H    1.001 --   144 C    0.973
   187   1 H    1.003 --   145 C    0.973
   188   1 H    1.003 --   150 C    0.971
   189   1 H    0.999 --   151 C    0.966
   190   1 H    0.854 --   155 O    0.827
   191   1 H    0.999 --   157 C    0.967
   192   1 H    1.003 --   158 C    0.971
   193   1 H    1.003 --   160 C    0.973
   194   1 H    1.001 --   161 C    0.973
   195   1 H    1.001 --   166 C    0.973
   196   1 H    1.003 --   167 C    0.973
   197   1 H    1.003 --   172 C    0.971
   198   1 H    0.999 --   173 C    0.966
   199   1 H    0.854 --   177 O    0.828
   200   1 H    0.999 --   179 C    0.967
   201   1 H    1.003 --   180 C    0.971
   202   1 H    1.003 --   182 C    0.973
   203   1 H    1.001 --   183 C    0.973
 ---------------------------------------------------------------------------

           -------------------------------------------------
          | TOTAL ENERGY             -415.151467082834 Eh   |
          | GRADIENT NORM               0.000933414384 Eh/α |
          | HOMO-LUMO GAP               1.220212615278 eV   |
           -------------------------------------------------

 * finished run on 2022/07/30 at 11:08:11.513
